 Entering Gaussian System, Link 0=/opt/ebsofts/Gaussian/g16/g16
 Initial command:
 /opt/ebsofts/Gaussian/g16/l1.exe "/scratch/Gau-4142154.inp" -scrdir="/scratch/"
 Entering Link 1 = /opt/ebsofts/Gaussian/g16/l1.exe PID=   4142155.
  
 Copyright (c) 1988,1990,1992,1993,1995,1998,2003,2009,2016,
            Gaussian, Inc.  All Rights Reserved.
  
 This is part of the Gaussian(R) 16 program.  It is based on
 the Gaussian(R) 09 system (copyright 2009, Gaussian, Inc.),
 the Gaussian(R) 03 system (copyright 2003, Gaussian, Inc.),
 the Gaussian(R) 98 system (copyright 1998, Gaussian, Inc.),
 the Gaussian(R) 94 system (copyright 1995, Gaussian, Inc.),
 the Gaussian 92(TM) system (copyright 1992, Gaussian, Inc.),
 the Gaussian 90(TM) system (copyright 1990, Gaussian, Inc.),
 the Gaussian 88(TM) system (copyright 1988, Gaussian, Inc.),
 the Gaussian 86(TM) system (copyright 1986, Carnegie Mellon
 University), and the Gaussian 82(TM) system (copyright 1983,
 Carnegie Mellon University). Gaussian is a federally registered
 trademark of Gaussian, Inc.
  
 This software contains proprietary and confidential information,
 including trade secrets, belonging to Gaussian, Inc.
  
 This software is provided under written license and may be
 used, copied, transmitted, or stored only in accord with that
 written license.
  
 The following legend is applicable only to US Government
 contracts under FAR:
  
                    RESTRICTED RIGHTS LEGEND
  
 Use, reproduction and disclosure by the US Government is
 subject to restrictions as set forth in subparagraphs (a)
 and (c) of the Commercial Computer Software - Restricted
 Rights clause in FAR 52.227-19.
  
 Gaussian, Inc.
 340 Quinnipiac St., Bldg. 40, Wallingford CT 06492
  
  
 ---------------------------------------------------------------
 Warning -- This program may not be used in any manner that
 competes with the business of Gaussian, Inc. or will provide
 assistance to any competitor of Gaussian, Inc.  The licensee
 of this program is prohibited from giving any competitor of
 Gaussian, Inc. access to this program.  By using this program,
 the user acknowledges that Gaussian, Inc. is engaged in the
 business of creating and licensing software in the field of
 computational chemistry and represents and warrants to the
 licensee that it is not a competitor of Gaussian, Inc. and that
 it will not use this program in any manner prohibited above.
 ---------------------------------------------------------------
  

 Cite this work as:
 Gaussian 16, Revision A.03,
 M. J. Frisch, G. W. Trucks, H. B. Schlegel, G. E. Scuseria, 
 M. A. Robb, J. R. Cheeseman, G. Scalmani, V. Barone, 
 G. A. Petersson, H. Nakatsuji, X. Li, M. Caricato, A. V. Marenich, 
 J. Bloino, B. G. Janesko, R. Gomperts, B. Mennucci, H. P. Hratchian, 
 J. V. Ortiz, A. F. Izmaylov, J. L. Sonnenberg, D. Williams-Young, 
 F. Ding, F. Lipparini, F. Egidi, J. Goings, B. Peng, A. Petrone, 
 T. Henderson, D. Ranasinghe, V. G. Zakrzewski, J. Gao, N. Rega, 
 G. Zheng, W. Liang, M. Hada, M. Ehara, K. Toyota, R. Fukuda, 
 J. Hasegawa, M. Ishida, T. Nakajima, Y. Honda, O. Kitao, H. Nakai, 
 T. Vreven, K. Throssell, J. A. Montgomery, Jr., J. E. Peralta, 
 F. Ogliaro, M. J. Bearpark, J. J. Heyd, E. N. Brothers, K. N. Kudin, 
 V. N. Staroverov, T. A. Keith, R. Kobayashi, J. Normand, 
 K. Raghavachari, A. P. Rendell, J. C. Burant, S. S. Iyengar, 
 J. Tomasi, M. Cossi, J. M. Millam, M. Klene, C. Adamo, R. Cammi, 
 J. W. Ochterski, R. L. Martin, K. Morokuma, O. Farkas, 
 J. B. Foresman, and D. J. Fox, Gaussian, Inc., Wallingford CT, 2016.
 
 ******************************************
 Gaussian 16:  ES64L-G16RevA.03 25-Dec-2016
                 3-Jun-2025 
 ******************************************
 %NProcShared=32
 Will use up to   32 processors via shared memory.
 %mem=35gb
 %Chk=chloranil_anion_D2h.chk
 -----------------------------------------------------
 #p B3LYP/6-31G(d,p) Opt Freq symmetry=(follow,pg=d2h)
 -----------------------------------------------------
 1/18=20,19=15,26=3,38=1/1,3;
 2/9=110,12=2,17=6,18=5,19=2314885530821079620,40=1/2;
 3/5=1,6=6,7=101,11=2,25=1,30=1,71=1,74=-5/1,2,3;
 4//1;
 5/5=2,38=5/2;
 6/7=2,8=2,9=2,10=2,28=1/1;
 7//1,2,3,16;
 1/18=20,19=15,26=3/3(2);
 2/9=110,15=5,19=2314885530821079620/2;
 99//99;
 2/9=110,15=5,19=2314885530821079620/2;
 3/5=1,6=6,7=101,11=2,25=1,30=1,71=1,74=-5/1,2,3;
 4/5=5,16=3,69=1/1;
 5/5=2,38=5/2;
 7//1,2,3,16;
 1/18=20,19=15,26=3/3(-5);
 2/9=110,15=5,19=2314885530821079620/2;
 6/7=2,8=2,9=2,10=2,19=2,28=1/1;
 99/9=1/99;
 Leave Link    1 at Tue Jun  3 11:51:30 2025, MaxMem=  4697620480 cpu:               2.5 elap:               0.1
 (Enter /opt/ebsofts/Gaussian/g16/l101.exe)
 ---------------
 Chloranil Anion
 ---------------
 Symbolic Z-matrix:
 Charge = -1 Multiplicity = 2
 O                    -2.65856   0.        0. 
 C                    -1.43881   0.        0. 
 C                    -0.67006  -1.26698   0. 
 Cl                   -1.60799  -2.72003   0. 
 C                     0.67006  -1.26698   0. 
 Cl                    1.60799  -2.72003   0. 
 C                    -0.67006   1.26698   0. 
 Cl                   -1.60799   2.72003   0. 
 C                     0.67006   1.26698   0. 
 Cl                    1.60799   2.72003   0. 
 C                     1.43881   0.        0. 
 O                     2.65856   0.        0. 
 
 ITRead=  0  0  0  0  0  0  0  0  0  0  0  0
 MicOpt= -1 -1 -1 -1 -1 -1 -1 -1 -1 -1 -1 -1
 NAtoms=     12 NQM=       12 NQMF=       0 NMMI=      0 NMMIF=      0
                NMic=       0 NMicF=      0.
                    Isotopes and Nuclear Properties:
 (Nuclear quadrupole moments (NQMom) in fm**2, nuclear magnetic moments (NMagM)
  in nuclear magnetons)

  Atom         1           2           3           4           5           6           7           8           9          10
 IAtWgt=          16          12          12          35          12          35          12          35          12          35
 AtmWgt=  15.9949146  12.0000000  12.0000000  34.9688527  12.0000000  34.9688527  12.0000000  34.9688527  12.0000000  34.9688527
 NucSpn=           0           0           0           3           0           3           0           3           0           3
 AtZEff=  -0.0000000  -0.0000000  -0.0000000  -0.0000000  -0.0000000  -0.0000000  -0.0000000  -0.0000000  -0.0000000  -0.0000000
 NQMom=    0.0000000   0.0000000   0.0000000  -8.1650000   0.0000000  -8.1650000   0.0000000  -8.1650000   0.0000000  -8.1650000
 NMagM=    0.0000000   0.0000000   0.0000000   0.8218740   0.0000000   0.8218740   0.0000000   0.8218740   0.0000000   0.8218740
 AtZNuc=   8.0000000   6.0000000   6.0000000  17.0000000   6.0000000  17.0000000   6.0000000  17.0000000   6.0000000  17.0000000

  Atom        11          12
 IAtWgt=          12          16
 AtmWgt=  12.0000000  15.9949146
 NucSpn=           0           0
 AtZEff=  -0.0000000  -0.0000000
 NQMom=    0.0000000   0.0000000
 NMagM=    0.0000000   0.0000000
 AtZNuc=   6.0000000   8.0000000
 Leave Link  101 at Tue Jun  3 11:51:31 2025, MaxMem=  4697620480 cpu:              10.9 elap:               0.6
 (Enter /opt/ebsofts/Gaussian/g16/l103.exe)

 GradGradGradGradGradGradGradGradGradGradGradGradGradGradGradGradGradGrad
 Berny optimization.
 Initialization pass.
                           ----------------------------
                           !    Initial Parameters    !
                           ! (Angstroms and Degrees)  !
 --------------------------                            --------------------------
 ! Name  Definition              Value          Derivative Info.                !
 --------------------------------------------------------------------------------
 ! R1    R(1,2)                  1.2198         estimate D2E/DX2                !
 ! R2    R(2,3)                  1.482          estimate D2E/DX2                !
 ! R3    R(2,7)                  1.482          estimate D2E/DX2                !
 ! R4    R(3,4)                  1.7295         estimate D2E/DX2                !
 ! R5    R(3,5)                  1.3401         estimate D2E/DX2                !
 ! R6    R(5,6)                  1.7295         estimate D2E/DX2                !
 ! R7    R(5,11)                 1.482          estimate D2E/DX2                !
 ! R8    R(7,8)                  1.7295         estimate D2E/DX2                !
 ! R9    R(7,9)                  1.3401         estimate D2E/DX2                !
 ! R10   R(9,10)                 1.7295         estimate D2E/DX2                !
 ! R11   R(9,11)                 1.482          estimate D2E/DX2                !
 ! R12   R(11,12)                1.2198         estimate D2E/DX2                !
 ! A1    A(1,2,3)              121.2474         estimate D2E/DX2                !
 ! A2    A(1,2,7)              121.2474         estimate D2E/DX2                !
 ! A3    A(3,2,7)              117.5051         estimate D2E/DX2                !
 ! A4    A(2,3,4)              115.9106         estimate D2E/DX2                !
 ! A5    A(2,3,5)              121.2474         estimate D2E/DX2                !
 ! A6    A(4,3,5)              122.842          estimate D2E/DX2                !
 ! A7    A(3,5,6)              122.842          estimate D2E/DX2                !
 ! A8    A(3,5,11)             121.2474         estimate D2E/DX2                !
 ! A9    A(6,5,11)             115.9106         estimate D2E/DX2                !
 ! A10   A(2,7,8)              115.9106         estimate D2E/DX2                !
 ! A11   A(2,7,9)              121.2474         estimate D2E/DX2                !
 ! A12   A(8,7,9)              122.842          estimate D2E/DX2                !
 ! A13   A(7,9,10)             122.842          estimate D2E/DX2                !
 ! A14   A(7,9,11)             121.2474         estimate D2E/DX2                !
 ! A15   A(10,9,11)            115.9106         estimate D2E/DX2                !
 ! A16   A(5,11,9)             117.5051         estimate D2E/DX2                !
 ! A17   A(5,11,12)            121.2474         estimate D2E/DX2                !
 ! A18   A(9,11,12)            121.2474         estimate D2E/DX2                !
 ! D1    D(1,2,3,4)              0.0            estimate D2E/DX2                !
 ! D2    D(1,2,3,5)            180.0            estimate D2E/DX2                !
 ! D3    D(7,2,3,4)            180.0            estimate D2E/DX2                !
 ! D4    D(7,2,3,5)              0.0            estimate D2E/DX2                !
 ! D5    D(1,2,7,8)              0.0            estimate D2E/DX2                !
 ! D6    D(1,2,7,9)            180.0            estimate D2E/DX2                !
 ! D7    D(3,2,7,8)            180.0            estimate D2E/DX2                !
 ! D8    D(3,2,7,9)              0.0            estimate D2E/DX2                !
 ! D9    D(2,3,5,6)            180.0            estimate D2E/DX2                !
 ! D10   D(2,3,5,11)             0.0            estimate D2E/DX2                !
 ! D11   D(4,3,5,6)              0.0            estimate D2E/DX2                !
 ! D12   D(4,3,5,11)           180.0            estimate D2E/DX2                !
 ! D13   D(3,5,11,9)             0.0            estimate D2E/DX2                !
 ! D14   D(3,5,11,12)          180.0            estimate D2E/DX2                !
 ! D15   D(6,5,11,9)           180.0            estimate D2E/DX2                !
 ! D16   D(6,5,11,12)            0.0            estimate D2E/DX2                !
 ! D17   D(2,7,9,10)           180.0            estimate D2E/DX2                !
 ! D18   D(2,7,9,11)             0.0            estimate D2E/DX2                !
 ! D19   D(8,7,9,10)             0.0            estimate D2E/DX2                !
 ! D20   D(8,7,9,11)           180.0            estimate D2E/DX2                !
 ! D21   D(7,9,11,5)             0.0            estimate D2E/DX2                !
 ! D22   D(7,9,11,12)          180.0            estimate D2E/DX2                !
 ! D23   D(10,9,11,5)          180.0            estimate D2E/DX2                !
 ! D24   D(10,9,11,12)           0.0            estimate D2E/DX2                !
 --------------------------------------------------------------------------------
 Trust Radius=3.00D-01 FncErr=1.00D-07 GrdErr=1.00D-06 EigMax=2.50D+02 EigMin=1.00D-04
 Number of steps in this run=     64 maximum allowed number of steps=    100.
 GradGradGradGradGradGradGradGradGradGradGradGradGradGradGradGradGradGrad

 Leave Link  103 at Tue Jun  3 11:51:31 2025, MaxMem=  4697620480 cpu:               1.7 elap:               0.1
 (Enter /opt/ebsofts/Gaussian/g16/l202.exe)
                          Input orientation:                          
 ---------------------------------------------------------------------
 Center     Atomic      Atomic             Coordinates (Angstroms)
 Number     Number       Type             X           Y           Z
 ---------------------------------------------------------------------
      1          8           0       -2.658560    0.000000    0.000000
      2          6           0       -1.438807    0.000000    0.000000
      3          6           0       -0.670062   -1.266980    0.000000
      4         17           0       -1.607994   -2.720027    0.000000
      5          6           0        0.670062   -1.266980    0.000000
      6         17           0        1.607994   -2.720027    0.000000
      7          6           0       -0.670062    1.266980    0.000000
      8         17           0       -1.607994    2.720027    0.000000
      9          6           0        0.670062    1.266980    0.000000
     10         17           0        1.607994    2.720027    0.000000
     11          6           0        1.438807    0.000000    0.000000
     12          8           0        2.658560    0.000000    0.000000
 ---------------------------------------------------------------------
                    Distance matrix (angstroms):
                    1          2          3          4          5
     1  O    0.000000
     2  C    1.219753   0.000000
     3  C    2.357829   1.481960   0.000000
     4  Cl   2.915859   2.725283   1.729468   0.000000
     5  C    3.561595   2.460196   1.340124   2.702014   0.000000
     6  Cl   5.059844   4.084304   2.702014   3.215987   1.729468
     7  C    2.357829   1.481960   2.533960   4.095844   2.866511
     8  Cl   2.915859   2.725283   4.095844   5.440053   4.591923
     9  C    3.561595   2.460196   2.866511   4.591923   2.533960
    10  Cl   5.059844   4.084304   4.591923   6.319553   4.095844
    11  C    4.097366   2.877614   2.460196   4.084304   1.481960
    12  O    5.317119   4.097366   3.561595   5.059844   2.357829
                    6          7          8          9         10
     6  Cl   0.000000
     7  C    4.591923   0.000000
     8  Cl   6.319553   1.729468   0.000000
     9  C    4.095844   1.340124   2.702014   0.000000
    10  Cl   5.440053   2.702014   3.215987   1.729468   0.000000
    11  C    2.725283   2.460196   4.084304   1.481960   2.725283
    12  O    2.915859   3.561595   5.059844   2.357829   2.915859
                   11         12
    11  C    0.000000
    12  O    1.219753   0.000000
 Symm:  InNGrp=D2H  InAxis=0 RotPrA=F RotCs=T.
 Stoichiometry    C6Cl4O2(1-,2)
 Framework group  D2H[C2"(OC.CO),SG(C4Cl4)]
 Deg. of freedom     6
 Full point group                 D2H     NOp   8
 Largest Abelian subgroup         D2H     NOp   8
 Largest concise Abelian subgroup D2      NOp   4
                         Standard orientation:                         
 ---------------------------------------------------------------------
 Center     Atomic      Atomic             Coordinates (Angstroms)
 Number     Number       Type             X           Y           Z
 ---------------------------------------------------------------------
      1          8           0        0.000000    0.000000    2.658560
      2          6           0        0.000000    0.000000    1.438807
      3          6           0        0.000000    1.266980    0.670062
      4         17           0        0.000000    2.720027    1.607994
      5          6           0        0.000000    1.266980   -0.670062
      6         17           0        0.000000    2.720027   -1.607994
      7          6           0       -0.000000   -1.266980    0.670062
      8         17           0       -0.000000   -2.720027    1.607994
      9          6           0       -0.000000   -1.266980   -0.670062
     10         17           0       -0.000000   -2.720027   -1.607994
     11          6           0        0.000000    0.000000   -1.438807
     12          8           0        0.000000    0.000000   -2.658560
 ---------------------------------------------------------------------
 Rotational constants (GHZ):           0.7668816           0.4545078           0.2853747
 Leave Link  202 at Tue Jun  3 11:51:31 2025, MaxMem=  4697620480 cpu:               5.1 elap:               0.3
 (Enter /opt/ebsofts/Gaussian/g16/l301.exe)
 Standard basis: 6-31G(d,p) (6D, 7F)
 Ernie: Thresh=  0.10000D-02 Tol=  0.10000D-05 Strict=F.
 There are    41 symmetry adapted cartesian basis functions of AG  symmetry.
 There are    11 symmetry adapted cartesian basis functions of B1G symmetry.
 There are    15 symmetry adapted cartesian basis functions of B2G symmetry.
 There are    31 symmetry adapted cartesian basis functions of B3G symmetry.
 There are    11 symmetry adapted cartesian basis functions of AU  symmetry.
 There are    41 symmetry adapted cartesian basis functions of B1U symmetry.
 There are    31 symmetry adapted cartesian basis functions of B2U symmetry.
 There are    15 symmetry adapted cartesian basis functions of B3U symmetry.
 There are    41 symmetry adapted basis functions of AG  symmetry.
 There are    11 symmetry adapted basis functions of B1G symmetry.
 There are    15 symmetry adapted basis functions of B2G symmetry.
 There are    31 symmetry adapted basis functions of B3G symmetry.
 There are    11 symmetry adapted basis functions of AU  symmetry.
 There are    41 symmetry adapted basis functions of B1U symmetry.
 There are    31 symmetry adapted basis functions of B2U symmetry.
 There are    15 symmetry adapted basis functions of B3U symmetry.
   196 basis functions,   432 primitive gaussians,   196 cartesian basis functions
    61 alpha electrons       60 beta electrons
       nuclear repulsion energy      1069.7180259482 Hartrees.
 IExCor=  402 DFT=T Ex+Corr=B3LYP ExCW=0 ScaHFX=  0.200000
 ScaDFX=  0.800000  0.720000  1.000000  0.810000 ScalE2=  1.000000  1.000000
 IRadAn=      5 IRanWt=     -1 IRanGd=            0 ICorTp=0 IEmpDi=  4
 NAtoms=   12 NActive=   12 NUniq=    4 SFac= 4.00D+00 NAtFMM=   60 NAOKFM=F Big=F
 Integral buffers will be    131072 words long.
 Raffenetti 2 integral format.
 Two-electron integral symmetry is turned on.
 Leave Link  301 at Tue Jun  3 11:51:32 2025, MaxMem=  4697620480 cpu:               4.0 elap:               0.2
 (Enter /opt/ebsofts/Gaussian/g16/l302.exe)
 NPDir=0 NMtPBC=     1 NCelOv=     1 NCel=       1 NClECP=     1 NCelD=      1
         NCelK=      1 NCelE2=     1 NClLst=     1 CellRange=     0.0.
 One-electron integrals computed using PRISM.
 One-electron integral symmetry used in STVInt
 NBasis=   196 RedAO= T EigKep=  4.98D-04  NBF=    41    11    15    31    11    41    31    15
 NBsUse=   196 1.00D-06 EigRej= -1.00D+00 NBFU=    41    11    15    31    11    41    31    15
 Precomputing XC quadrature grid using
 IXCGrd= 4 IRadAn=           5 IRanWt=          -1 IRanGd=           0 AccXCQ= 0.00D+00.
 Generated NRdTot=       0 NPtTot=           0 NUsed=           0 NTot=          32
 NSgBfM=   193   193   193   193   193 MxSgAt=    12 MxSgA2=    12.
 Leave Link  302 at Tue Jun  3 11:51:32 2025, MaxMem=  4697620480 cpu:              10.3 elap:               0.5
 (Enter /opt/ebsofts/Gaussian/g16/l303.exe)
 DipDrv:  MaxL=1.
 Leave Link  303 at Tue Jun  3 11:51:32 2025, MaxMem=  4697620480 cpu:               4.7 elap:               0.3
 (Enter /opt/ebsofts/Gaussian/g16/l401.exe)
 ExpMin= 1.43D-01 ExpMax= 2.52D+04 ExpMxC= 3.78D+03 IAcc=3 IRadAn=         5 AccDes= 0.00D+00
 Harris functional with IExCor=  402 and IRadAn=       5 diagonalized for initial guess.
 HarFok:  IExCor=  402 AccDes= 0.00D+00 IRadAn=         5 IDoV= 1 UseB2=F ITyADJ=14
 ICtDFT=  3500011 ScaDFX=  1.000000  1.000000  1.000000  1.000000
 FoFCou: FMM=F IPFlag=           0 FMFlag=      100000 FMFlg1=           0
         NFxFlg=           0 DoJE=T BraDBF=F KetDBF=T FulRan=T
         wScrn=  0.000000 ICntrl=       500 IOpCl=  0 I1Cent=   200000004 NGrid=           0
         NMat0=    1 NMatS0=      1 NMatT0=    0 NMatD0=    1 NMtDS0=    0 NMtDT0=    0
 Petite list used in FoFCou.
 Harris En= -2219.73448304589    
 JPrj=0 DoOrth=F DoCkMO=F.
 Initial guess orbital symmetries:
 Alpha Orbitals:
       Occupied  (B1U) (B3G) (B2U) (AG) (B1U) (AG) (B1U) (AG) (B2U)
                 (AG) (B1U) (B3G) (B1U) (B3G) (B2U) (AG) (B1U)
                 (B3G) (B2U) (AG) (B3G) (B1U) (B2U) (AG) (B2G)
                 (AU) (B1G) (B3U) (AG) (B1U) (AG) (B2U) (B1U) (B3G)
                 (AG) (B2U) (B1U) (AG) (B3G) (B2U) (AG) (B1U) (B3U)
                 (B2G) (AG) (B2U) (B1U) (B3G) (B1G) (B3U) (B2U)
                 (B3G) (B2G) (AU) (AG) (B2U) (B1U) (B3U) (B3G)
                 (B1G) (B2G)
       Virtual   (AU) (B3U) (AG) (B2U) (B1U) (B2G) (B3G) (AG) (B1U)
                 (AG) (B2U) (B1U) (B3G) (B1U) (B2U) (AG) (B3G)
                 (B3G) (AG) (B2U) (B3U) (B1U) (B1G) (AG) (B3G)
                 (B2U) (B2G) (AG) (B3U) (AU) (B2U) (B1U) (AG) (B1U)
                 (B3G) (B2G) (B1G) (B3U) (AU) (B1U) (B2G) (AG)
                 (B3G) (B1U) (B2U) (AG) (B2U) (B1U) (B3U) (B1G)
                 (AU) (AG) (B2G) (B1G) (B3G) (B3U) (B1U) (B2G)
                 (B3G) (AU) (B2U) (AG) (B1U) (B3U) (B3G) (AG) (B2U)
                 (B2U) (B1U) (B2U) (B2G) (B3G) (B1G) (B1U) (AG)
                 (AG) (B3G) (B3U) (B1U) (B2U) (B2G) (B3G) (AU)
                 (B3U) (AG) (B1G) (B2U) (B3G) (B1U) (B1G) (AU)
                 (AG) (B3G) (B1U) (B3U) (AG) (B1U) (B2U) (AG) (B1U)
                 (B2U) (B2G) (AG) (B1U) (AU) (B1G) (B2U) (B2G)
                 (B3G) (B3U) (AG) (AU) (B2G) (B3G) (AG) (B1U) (B3G)
                 (B1U) (AG) (B2U) (B1U) (B3G) (B1U) (B1U) (AG)
                 (B2U) (AG) (B3G) (B1U) (AG) (B2U) (B3G) (AG) (B1U)
                 (B1U)
 Beta  Orbitals:
       Occupied  (B1U) (B3G) (B2U) (AG) (B1U) (AG) (B1U) (AG) (B2U)
                 (AG) (B1U) (B3G) (B1U) (B3G) (B2U) (AG) (B1U)
                 (B3G) (B2U) (AG) (B3G) (B1U) (B2U) (AG) (B2G)
                 (AU) (B1G) (B3U) (AG) (B1U) (AG) (B2U) (B1U) (B3G)
                 (AG) (B2U) (B1U) (AG) (B3G) (B2U) (AG) (B1U) (B3U)
                 (B2G) (AG) (B2U) (B1U) (B3G) (B1G) (B3U) (B2U)
                 (B3G) (B2G) (AU) (AG) (B2U) (B1U) (B3U) (B3G)
                 (B1G)
       Virtual   (B2G) (AU) (B3U) (AG) (B2U) (B1U) (B2G) (B3G)
                 (AG) (B1U) (AG) (B2U) (B1U) (B3G) (B1U) (B2U)
                 (AG) (B3G) (B3G) (AG) (B2U) (B3U) (B1U) (B1G)
                 (AG) (B3G) (B2U) (B2G) (AG) (B3U) (AU) (B2U) (B1U)
                 (AG) (B1U) (B3G) (B2G) (B1G) (B3U) (AU) (B1U)
                 (B2G) (AG) (B3G) (B1U) (B2U) (AG) (B2U) (B1U)
                 (B3U) (B1G) (AU) (AG) (B2G) (B1G) (B3G) (B3U)
                 (B1U) (B2G) (B3G) (AU) (B2U) (AG) (B1U) (B3U)
                 (B3G) (AG) (B2U) (B2U) (B1U) (B2U) (B2G) (B3G)
                 (B1G) (B1U) (AG) (AG) (B3G) (B3U) (B1U) (B2U)
                 (B2G) (B3G) (AU) (B3U) (AG) (B1G) (B2U) (B3G)
                 (B1U) (B1G) (AU) (AG) (B3G) (B1U) (B3U) (AG) (B1U)
                 (B2U) (AG) (B1U) (B2U) (B2G) (AG) (B1U) (AU) (B1G)
                 (B2U) (B2G) (B3G) (B3U) (AG) (AU) (B2G) (B3G)
                 (AG) (B1U) (B3G) (B1U) (AG) (B2U) (B1U) (B3G)
                 (B1U) (B1U) (AG) (B2U) (AG) (B3G) (B1U) (AG) (B2U)
                 (B3G) (AG) (B1U) (B1U)
 The electronic state of the initial guess is 2-B2G.
 Initial guess <Sx>= 0.0000 <Sy>= 0.0000 <Sz>= 0.5000 <S**2>= 0.7500 S= 0.5000
 Leave Link  401 at Tue Jun  3 11:51:34 2025, MaxMem=  4697620480 cpu:              29.8 elap:               1.3
 (Enter /opt/ebsofts/Gaussian/g16/l502.exe)
 Keep R1 and R2 ints in memory in symmetry-blocked form, NReq=219208291.
 FoFCou: FMM=F IPFlag=           0 FMFlag=           0 FMFlg1=           0
         NFxFlg=           0 DoJE=F BraDBF=F KetDBF=F FulRan=T
         wScrn=  0.000000 ICntrl=       600 IOpCl=  0 I1Cent=           0 NGrid=           0
         NMat0=    1 NMatS0=  19306 NMatT0=    0 NMatD0=    1 NMtDS0=    0 NMtDT0=    0
 Petite list used in FoFCou.
 UHF open shell SCF:
 Using DIIS extrapolation, IDIIS=  1040.
 NGot=  4697620480 LenX=  4648494618 LenY=  4648455761
 Requested convergence on RMS density matrix=1.00D-08 within 128 cycles.
 Requested convergence on MAX density matrix=1.00D-06.
 Requested convergence on             energy=1.00D-06.
 No special actions if energy rises.
 Integral accuracy reduced to 1.0D-05 until final iterations.

 Cycle   1  Pass 0  IDiag  1:
 E= -2219.59001197174    
 DIIS: error= 4.12D-02 at cycle   1 NSaved=   1.
 NSaved= 1 IEnMin= 1 EnMin= -2219.59001197174     IErMin= 1 ErrMin= 4.12D-02
 ErrMax= 4.12D-02  0.00D+00 EMaxC= 1.00D-01 BMatC= 1.42D+00 BMatP= 1.42D+00
 IDIUse=3 WtCom= 5.88D-01 WtEn= 4.12D-01
 Coeff-Com:  0.100D+01
 Coeff-En:   0.100D+01
 Coeff:      0.100D+01
 Gap=     0.059 Goal=   None    Shift=    0.000
 Gap=     0.271 Goal=   None    Shift=    0.000
 GapD=    0.059 DampG=0.500 DampE=0.500 DampFc=0.2500 IDamp=-1.
 Damping current iteration by 2.50D-01
 RMSDP=1.35D-02 MaxDP=3.67D-01              OVMax= 4.25D-01

 Cycle   2  Pass 0  IDiag  1:
 E= -2219.70030406082     Delta-E=       -0.110292089077 Rises=F Damp=T
 DIIS: error= 2.20D-02 at cycle   2 NSaved=   2.
 NSaved= 2 IEnMin= 2 EnMin= -2219.70030406082     IErMin= 2 ErrMin= 2.20D-02
 ErrMax= 2.20D-02  0.00D+00 EMaxC= 1.00D-01 BMatC= 2.60D-01 BMatP= 1.42D+00
 IDIUse=3 WtCom= 7.80D-01 WtEn= 2.20D-01
 Coeff-Com: -0.511D+00 0.151D+01
 Coeff-En:   0.000D+00 0.100D+01
 Coeff:     -0.399D+00 0.140D+01
 Gap=     0.145 Goal=   None    Shift=    0.000
 Gap=     0.143 Goal=   None    Shift=    0.000
 RMSDP=2.55D-03 MaxDP=5.47D-02 DE=-1.10D-01 OVMax= 2.47D-01

 Cycle   3  Pass 0  IDiag  1:
 E= -2219.87293963805     Delta-E=       -0.172635577225 Rises=F Damp=F
 DIIS: error= 1.60D-02 at cycle   3 NSaved=   3.
 NSaved= 3 IEnMin= 3 EnMin= -2219.87293963805     IErMin= 3 ErrMin= 1.60D-02
 ErrMax= 1.60D-02  0.00D+00 EMaxC= 1.00D-01 BMatC= 1.19D-01 BMatP= 2.60D-01
 IDIUse=3 WtCom= 8.40D-01 WtEn= 1.60D-01
 Coeff-Com: -0.277D+00 0.788D+00 0.489D+00
 Coeff-En:   0.000D+00 0.000D+00 0.100D+01
 Coeff:     -0.232D+00 0.661D+00 0.571D+00
 Gap=     0.128 Goal=   None    Shift=    0.000
 Gap=     0.140 Goal=   None    Shift=    0.000
 RMSDP=1.96D-03 MaxDP=3.99D-02 DE=-1.73D-01 OVMax= 8.19D-02

 Cycle   4  Pass 0  IDiag  1:
 E= -2219.88565809462     Delta-E=       -0.012718456571 Rises=F Damp=F
 DIIS: error= 1.19D-02 at cycle   4 NSaved=   4.
 NSaved= 4 IEnMin= 4 EnMin= -2219.88565809462     IErMin= 4 ErrMin= 1.19D-02
 ErrMax= 1.19D-02  0.00D+00 EMaxC= 1.00D-01 BMatC= 7.04D-02 BMatP= 1.19D-01
 IDIUse=3 WtCom= 8.81D-01 WtEn= 1.19D-01
 Coeff-Com: -0.945D-02 0.415D-01 0.427D+00 0.541D+00
 Coeff-En:   0.000D+00 0.000D+00 0.393D+00 0.607D+00
 Coeff:     -0.833D-02 0.366D-01 0.423D+00 0.548D+00
 Gap=     0.136 Goal=   None    Shift=    0.000
 Gap=     0.152 Goal=   None    Shift=    0.000
 RMSDP=9.90D-04 MaxDP=2.37D-02 DE=-1.27D-02 OVMax= 3.37D-02

 Cycle   5  Pass 0  IDiag  1:
 E= -2219.90231951204     Delta-E=       -0.016661417418 Rises=F Damp=F
 DIIS: error= 8.39D-04 at cycle   5 NSaved=   5.
 NSaved= 5 IEnMin= 5 EnMin= -2219.90231951204     IErMin= 5 ErrMin= 8.39D-04
 ErrMax= 8.39D-04  0.00D+00 EMaxC= 1.00D-01 BMatC= 5.00D-04 BMatP= 7.04D-02
 IDIUse=3 WtCom= 9.92D-01 WtEn= 8.39D-03
 Coeff-Com:  0.114D-01-0.194D-01 0.122D+00 0.185D+00 0.700D+00
 Coeff-En:   0.000D+00 0.000D+00 0.000D+00 0.000D+00 0.100D+01
 Coeff:      0.113D-01-0.193D-01 0.121D+00 0.184D+00 0.703D+00
 Gap=     0.136 Goal=   None    Shift=    0.000
 Gap=     0.153 Goal=   None    Shift=    0.000
 RMSDP=1.30D-04 MaxDP=2.72D-03 DE=-1.67D-02 OVMax= 3.63D-03

 Cycle   6  Pass 0  IDiag  1:
 E= -2219.90248716548     Delta-E=       -0.000167653446 Rises=F Damp=F
 DIIS: error= 4.01D-04 at cycle   6 NSaved=   6.
 NSaved= 6 IEnMin= 6 EnMin= -2219.90248716548     IErMin= 6 ErrMin= 4.01D-04
 ErrMax= 4.01D-04  0.00D+00 EMaxC= 1.00D-01 BMatC= 3.82D-05 BMatP= 5.00D-04
 IDIUse=3 WtCom= 9.96D-01 WtEn= 4.01D-03
 Coeff-Com:  0.274D-02-0.476D-02-0.424D-01-0.690D-01-0.792D-01 0.119D+01
 Coeff-En:   0.000D+00 0.000D+00 0.000D+00 0.000D+00 0.000D+00 0.100D+01
 Coeff:      0.272D-02-0.474D-02-0.422D-01-0.688D-01-0.789D-01 0.119D+01
 Gap=     0.137 Goal=   None    Shift=    0.000
 Gap=     0.154 Goal=   None    Shift=    0.000
 RMSDP=4.53D-05 MaxDP=2.28D-03 DE=-1.68D-04 OVMax= 3.94D-03

 Cycle   7  Pass 0  IDiag  1:
 E= -2219.90251863879     Delta-E=       -0.000031473311 Rises=F Damp=F
 DIIS: error= 1.75D-04 at cycle   7 NSaved=   7.
 NSaved= 7 IEnMin= 7 EnMin= -2219.90251863879     IErMin= 7 ErrMin= 1.75D-04
 ErrMax= 1.75D-04  0.00D+00 EMaxC= 1.00D-01 BMatC= 6.81D-06 BMatP= 3.82D-05
 IDIUse=3 WtCom= 9.98D-01 WtEn= 1.75D-03
 Coeff-Com:  0.362D-03-0.424D-03-0.209D-01-0.352D-01-0.895D-01 0.233D+00
 Coeff-Com:  0.912D+00
 Coeff-En:   0.000D+00 0.000D+00 0.000D+00 0.000D+00 0.000D+00 0.000D+00
 Coeff-En:   0.100D+01
 Coeff:      0.362D-03-0.423D-03-0.209D-01-0.352D-01-0.894D-01 0.233D+00
 Coeff:      0.912D+00
 Gap=     0.137 Goal=   None    Shift=    0.000
 Gap=     0.154 Goal=   None    Shift=    0.000
 RMSDP=1.62D-05 MaxDP=7.35D-04 DE=-3.15D-05 OVMax= 1.21D-03

 Cycle   8  Pass 0  IDiag  1:
 E= -2219.90252220060     Delta-E=       -0.000003561811 Rises=F Damp=F
 DIIS: error= 5.93D-05 at cycle   8 NSaved=   8.
 NSaved= 8 IEnMin= 8 EnMin= -2219.90252220060     IErMin= 8 ErrMin= 5.93D-05
 ErrMax= 5.93D-05  0.00D+00 EMaxC= 1.00D-01 BMatC= 2.60D-06 BMatP= 6.81D-06
 IDIUse=1 WtCom= 1.00D+00 WtEn= 0.00D+00
 Coeff-Com: -0.282D-03 0.774D-03-0.229D-02-0.532D-02-0.306D-01-0.124D+00
 Coeff-Com:  0.486D+00 0.676D+00
 Coeff:     -0.282D-03 0.774D-03-0.229D-02-0.532D-02-0.306D-01-0.124D+00
 Coeff:      0.486D+00 0.676D+00
 Gap=     0.137 Goal=   None    Shift=    0.000
 Gap=     0.154 Goal=   None    Shift=    0.000
 RMSDP=8.05D-06 MaxDP=3.08D-04 DE=-3.56D-06 OVMax= 5.02D-04

 Initial convergence to 1.0D-05 achieved.  Increase integral accuracy.
 Cycle   9  Pass 1  IDiag  1:
 E= -2219.90258369042     Delta-E=       -0.000061489818 Rises=F Damp=F
 DIIS: error= 1.53D-05 at cycle   1 NSaved=   1.
 NSaved= 1 IEnMin= 1 EnMin= -2219.90258369042     IErMin= 1 ErrMin= 1.53D-05
 ErrMax= 1.53D-05  0.00D+00 EMaxC= 1.00D-01 BMatC= 2.17D-07 BMatP= 2.17D-07
 IDIUse=1 WtCom= 1.00D+00 WtEn= 0.00D+00
 Coeff-Com:  0.100D+01
 Coeff:      0.100D+01
 Gap=     0.137 Goal=   None    Shift=    0.000
 Gap=     0.154 Goal=   None    Shift=    0.000
 RMSDP=8.05D-06 MaxDP=3.08D-04 DE=-6.15D-05 OVMax= 9.74D-05

 Cycle  10  Pass 1  IDiag  1:
 E= -2219.90258371405     Delta-E=       -0.000000023632 Rises=F Damp=F
 DIIS: error= 1.84D-05 at cycle   2 NSaved=   2.
 NSaved= 2 IEnMin= 2 EnMin= -2219.90258371405     IErMin= 1 ErrMin= 1.53D-05
 ErrMax= 1.84D-05  0.00D+00 EMaxC= 1.00D-01 BMatC= 1.81D-07 BMatP= 2.17D-07
 IDIUse=1 WtCom= 1.00D+00 WtEn= 0.00D+00
 Coeff-Com:  0.474D+00 0.526D+00
 Coeff:      0.474D+00 0.526D+00
 Gap=     0.137 Goal=   None    Shift=    0.000
 Gap=     0.154 Goal=   None    Shift=    0.000
 RMSDP=1.47D-06 MaxDP=4.21D-05 DE=-2.36D-08 OVMax= 7.10D-05

 Cycle  11  Pass 1  IDiag  1:
 E= -2219.90258375421     Delta-E=       -0.000000040160 Rises=F Damp=F
 DIIS: error= 6.09D-06 at cycle   3 NSaved=   3.
 NSaved= 3 IEnMin= 3 EnMin= -2219.90258375421     IErMin= 3 ErrMin= 6.09D-06
 ErrMax= 6.09D-06  0.00D+00 EMaxC= 1.00D-01 BMatC= 1.38D-08 BMatP= 1.81D-07
 IDIUse=1 WtCom= 1.00D+00 WtEn= 0.00D+00
 Coeff-Com:  0.405D-01 0.208D+00 0.752D+00
 Coeff:      0.405D-01 0.208D+00 0.752D+00
 Gap=     0.137 Goal=   None    Shift=    0.000
 Gap=     0.154 Goal=   None    Shift=    0.000
 RMSDP=4.45D-07 MaxDP=1.54D-05 DE=-4.02D-08 OVMax= 2.71D-05

 Cycle  12  Pass 1  IDiag  1:
 E= -2219.90258375720     Delta-E=       -0.000000002985 Rises=F Damp=F
 DIIS: error= 3.85D-06 at cycle   4 NSaved=   4.
 NSaved= 4 IEnMin= 4 EnMin= -2219.90258375720     IErMin= 4 ErrMin= 3.85D-06
 ErrMax= 3.85D-06  0.00D+00 EMaxC= 1.00D-01 BMatC= 3.82D-09 BMatP= 1.38D-08
 IDIUse=1 WtCom= 1.00D+00 WtEn= 0.00D+00
 Coeff-Com: -0.272D-01 0.612D-01 0.416D+00 0.550D+00
 Coeff:     -0.272D-01 0.612D-01 0.416D+00 0.550D+00
 Gap=     0.137 Goal=   None    Shift=    0.000
 Gap=     0.154 Goal=   None    Shift=    0.000
 RMSDP=2.64D-07 MaxDP=1.17D-05 DE=-2.99D-09 OVMax= 1.90D-05

 Cycle  13  Pass 1  IDiag  1:
 E= -2219.90258375798     Delta-E=       -0.000000000778 Rises=F Damp=F
 DIIS: error= 1.94D-06 at cycle   5 NSaved=   5.
 NSaved= 5 IEnMin= 5 EnMin= -2219.90258375798     IErMin= 5 ErrMin= 1.94D-06
 ErrMax= 1.94D-06  0.00D+00 EMaxC= 1.00D-01 BMatC= 1.46D-09 BMatP= 3.82D-09
 IDIUse=1 WtCom= 1.00D+00 WtEn= 0.00D+00
 Coeff-Com: -0.298D-01-0.839D-02 0.917D-01 0.399D+00 0.547D+00
 Coeff:     -0.298D-01-0.839D-02 0.917D-01 0.399D+00 0.547D+00
 Gap=     0.137 Goal=   None    Shift=    0.000
 Gap=     0.154 Goal=   None    Shift=    0.000
 RMSDP=1.65D-07 MaxDP=5.50D-06 DE=-7.78D-10 OVMax= 7.78D-06

 Cycle  14  Pass 1  IDiag  1:
 E= -2219.90258375836     Delta-E=       -0.000000000379 Rises=F Damp=F
 DIIS: error= 5.99D-07 at cycle   6 NSaved=   6.
 NSaved= 6 IEnMin= 6 EnMin= -2219.90258375836     IErMin= 6 ErrMin= 5.99D-07
 ErrMax= 5.99D-07  0.00D+00 EMaxC= 1.00D-01 BMatC= 9.21D-11 BMatP= 1.46D-09
 IDIUse=1 WtCom= 1.00D+00 WtEn= 0.00D+00
 Coeff-Com:  0.295D-02-0.234D-01-0.140D+00-0.606D-01 0.130D+00 0.109D+01
 Coeff:      0.295D-02-0.234D-01-0.140D+00-0.606D-01 0.130D+00 0.109D+01
 Gap=     0.137 Goal=   None    Shift=    0.000
 Gap=     0.154 Goal=   None    Shift=    0.000
 RMSDP=8.23D-08 MaxDP=3.78D-06 DE=-3.79D-10 OVMax= 6.17D-06

 Cycle  15  Pass 1  IDiag  1:
 E= -2219.90258375842     Delta-E=       -0.000000000063 Rises=F Damp=F
 DIIS: error= 1.67D-07 at cycle   7 NSaved=   7.
 NSaved= 7 IEnMin= 7 EnMin= -2219.90258375842     IErMin= 7 ErrMin= 1.67D-07
 ErrMax= 1.67D-07  0.00D+00 EMaxC= 1.00D-01 BMatC= 2.19D-11 BMatP= 9.21D-11
 IDIUse=1 WtCom= 1.00D+00 WtEn= 0.00D+00
 Coeff-Com:  0.325D-02-0.113D-01-0.793D-01-0.551D-01 0.168D-01 0.565D+00
 Coeff-Com:  0.561D+00
 Coeff:      0.325D-02-0.113D-01-0.793D-01-0.551D-01 0.168D-01 0.565D+00
 Coeff:      0.561D+00
 Gap=     0.137 Goal=   None    Shift=    0.000
 Gap=     0.154 Goal=   None    Shift=    0.000
 RMSDP=2.56D-08 MaxDP=6.20D-07 DE=-6.32D-11 OVMax= 1.18D-06

 Cycle  16  Pass 1  IDiag  1:
 E= -2219.90258375842     Delta-E=       -0.000000000003 Rises=F Damp=F
 DIIS: error= 4.56D-08 at cycle   8 NSaved=   8.
 NSaved= 8 IEnMin= 8 EnMin= -2219.90258375842     IErMin= 8 ErrMin= 4.56D-08
 ErrMax= 4.56D-08  0.00D+00 EMaxC= 1.00D-01 BMatC= 1.81D-12 BMatP= 2.19D-11
 IDIUse=1 WtCom= 1.00D+00 WtEn= 0.00D+00
 Coeff-Com:  0.113D-02-0.140D-02-0.155D-01-0.171D-01-0.153D-01 0.944D-01
 Coeff-Com:  0.250D+00 0.704D+00
 Coeff:      0.113D-02-0.140D-02-0.155D-01-0.171D-01-0.153D-01 0.944D-01
 Coeff:      0.250D+00 0.704D+00
 Gap=     0.137 Goal=   None    Shift=    0.000
 Gap=     0.154 Goal=   None    Shift=    0.000
 RMSDP=6.11D-09 MaxDP=2.21D-07 DE=-2.73D-12 OVMax= 2.81D-07

 SCF Done:  E(UB3LYP) =  -2219.90258376     A.U. after   16 cycles
            NFock= 16  Conv=0.61D-08     -V/T= 2.0039
 <Sx>= 0.0000 <Sy>= 0.0000 <Sz>= 0.5000 <S**2>= 0.7594 S= 0.5047
 <L.S>= 0.000000000000E+00
 KE= 2.211263081663D+03 PE=-7.418177258993D+03 EE= 1.917293567623D+03
 Annihilation of the first spin contaminant:
 S**2 before annihilation     0.7594,   after     0.7500
 Leave Link  502 at Tue Jun  3 11:51:46 2025, MaxMem=  4697620480 cpu:             366.9 elap:              12.3
 (Enter /opt/ebsofts/Gaussian/g16/l601.exe)
 Copying SCF densities to generalized density rwf, IOpCl= 1 IROHF=0.

 **********************************************************************

            Population analysis using the SCF density.

 **********************************************************************

 Orbital symmetries:
 Alpha Orbitals:
       Occupied  (B1U) (B3G) (AG) (B2U) (B1U) (AG) (B1U) (AG) (B2U)
                 (AG) (B3G) (B1U) (B1U) (B3G) (B2U) (AG) (B1U)
                 (B3G) (B2U) (AG) (B2G) (AU) (B1G) (B3U) (B3G)
                 (B1U) (B2U) (AG) (AG) (B1U) (AG) (B2U) (B3G) (B1U)
                 (AG) (B2U) (B1U) (B3G) (AG) (B2U) (AG) (B1U) (B2U)
                 (B3U) (B3G) (B1U) (AG) (B2G) (B1G) (B3U) (AU)
                 (B2G) (AG) (B2U) (B1U) (B3G) (B3U) (B1G) (B2U)
                 (B3G) (B2G)
       Virtual   (AU) (AG) (B2U) (B3U) (B1U) (B3G) (B2G) (AG) (AG)
                 (B1U) (B2U) (B1U) (B3G) (B2U) (AG) (B1U) (B3G)
                 (B3U) (B1U) (B1G) (B2U) (B3G) (AG) (AG) (B2U)
                 (B2G) (B3G) (AU) (B3U) (AG) (B2U) (B1U) (B3G)
                 (B1G) (B2G) (AG) (B3U) (AU) (B1U) (B1U) (B2G)
                 (AG) (B2U) (B3G) (B1U) (B2U) (B3U) (AG) (B1U)
                 (B1G) (AU) (B1G) (B2G) (B3G) (AG) (B3U) (B1U)
                 (AU) (B3G) (AG) (B2U) (B2G) (B1U) (AG) (B3U) (B3G)
                 (B2U) (B1U) (B2U) (B2G) (B2U) (B3G) (B1U) (B1G)
                 (AG) (AG) (B3G) (B1U) (B2U) (B3U) (B3G) (B2G)
                 (AU) (B3U) (B1G) (AG) (B3G) (B2U) (B1U) (B1G)
                 (AG) (AU) (B1U) (B3U) (B3G) (B2U) (AG) (B1U) (AG)
                 (B2G) (B2U) (AG) (B1U) (B1U) (AU) (B1G) (B2G)
                 (B2U) (B3G) (AU) (AG) (B3U) (B3G) (AG) (B2G) (B1U)
                 (B3G) (B1U) (AG) (B2U) (B1U) (B3G) (B1U) (B1U)
                 (AG) (B2U) (AG) (B3G) (B1U) (AG) (B2U) (B3G) (B1U)
                 (AG) (B1U)
 Beta  Orbitals:
       Occupied  (B1U) (B3G) (AG) (B2U) (B1U) (AG) (B1U) (AG) (B2U)
                 (AG) (B3G) (B1U) (B1U) (B3G) (B2U) (AG) (B1U)
                 (B3G) (B2U) (AG) (B2G) (AU) (B1G) (B3U) (B3G)
                 (B1U) (B2U) (AG) (AG) (B1U) (AG) (B2U) (B3G) (B1U)
                 (AG) (B2U) (B1U) (B3G) (AG) (B2U) (AG) (B1U) (B2U)
                 (B3U) (B3G) (AG) (B1U) (B1G) (B2G) (AU) (B3U)
                 (AG) (B2G) (B2U) (B1U) (B3G) (B3U) (B1G) (B2U)
                 (B3G)
       Virtual   (B2G) (AG) (AU) (B2U) (B1U) (B3U) (B3G) (B2G)
                 (AG) (AG) (B1U) (B2U) (B1U) (B3G) (B2U) (AG) (B1U)
                 (B3G) (B3U) (B1U) (B1G) (B2U) (B3G) (AG) (AG)
                 (B2U) (B2G) (B3G) (AU) (AG) (B3U) (B2U) (B1U)
                 (B3G) (B1G) (B2G) (AG) (B3U) (AU) (B1U) (B1U)
                 (B2G) (AG) (B2U) (B3G) (B1U) (B2U) (B3U) (AG)
                 (B1U) (B1G) (AU) (B2G) (B1G) (B3G) (AG) (B3U)
                 (B1U) (AU) (B3G) (AG) (B2U) (B2G) (B1U) (AG) (B3U)
                 (B2U) (B3G) (B1U) (B2U) (B2U) (B2G) (B3G) (B1U)
                 (B1G) (AG) (AG) (B3G) (B1U) (B2U) (B3U) (B3G)
                 (B2G) (AU) (B3U) (B1G) (AG) (B3G) (B2U) (B1U)
                 (B1G) (AG) (AU) (B1U) (B3G) (B3U) (B2U) (AG) (B1U)
                 (AG) (B2U) (B2G) (AG) (B1U) (B1U) (AU) (B1G) (B2G)
                 (B2U) (B3G) (AU) (AG) (B3U) (B3G) (AG) (B2G) (B1U)
                 (B3G) (B1U) (AG) (B2U) (B1U) (B3G) (B1U) (B1U)
                 (AG) (B2U) (AG) (B3G) (B1U) (AG) (B2U) (B3G) (B1U)
                 (AG) (B1U)
 The electronic state is 2-B2G.
 Alpha  occ. eigenvalues -- -101.42696-101.42696-101.42696-101.42696 -18.97761
 Alpha  occ. eigenvalues --  -18.97761 -10.12742 -10.12741 -10.11879 -10.11878
 Alpha  occ. eigenvalues --  -10.11797 -10.11797  -9.34300  -9.34300  -9.34298
 Alpha  occ. eigenvalues --   -9.34298  -7.10694  -7.10693  -7.10691  -7.10690
 Alpha  occ. eigenvalues --   -7.09771  -7.09770  -7.09769  -7.09769  -7.09672
 Alpha  occ. eigenvalues --   -7.09669  -7.09667  -7.09666  -0.89556  -0.89202
 Alpha  occ. eigenvalues --   -0.77510  -0.76900  -0.72583  -0.72260  -0.66285
 Alpha  occ. eigenvalues --   -0.59018  -0.53758  -0.45663  -0.45192  -0.39084
 Alpha  occ. eigenvalues --   -0.34967  -0.33179  -0.32155  -0.31642  -0.27953
 Alpha  occ. eigenvalues --   -0.27743  -0.27661  -0.26563  -0.26091  -0.21648
 Alpha  occ. eigenvalues --   -0.21435  -0.20265  -0.20108  -0.19312  -0.18294
 Alpha  occ. eigenvalues --   -0.17413  -0.14176  -0.11806  -0.11784  -0.11135
 Alpha  occ. eigenvalues --   -0.02180
 Alpha virt. eigenvalues --    0.11562   0.12790   0.15638   0.16142   0.18300
 Alpha virt. eigenvalues --    0.22691   0.27980   0.32990   0.38066   0.38225
 Alpha virt. eigenvalues --    0.41030   0.43573   0.45744   0.46361   0.47643
 Alpha virt. eigenvalues --    0.50387   0.51431   0.54225   0.54247   0.54554
 Alpha virt. eigenvalues --    0.54744   0.55244   0.55608   0.56125   0.57259
 Alpha virt. eigenvalues --    0.58436   0.59066   0.59961   0.64276   0.64590
 Alpha virt. eigenvalues --    0.66596   0.67197   0.72745   0.73214   0.73869
 Alpha virt. eigenvalues --    0.76479   0.77134   0.77499   0.78108   0.79984
 Alpha virt. eigenvalues --    0.84322   0.88168   0.90313   0.90627   0.94142
 Alpha virt. eigenvalues --    0.95238   0.95483   0.96969   0.98560   0.98644
 Alpha virt. eigenvalues --    0.99034   0.99509   0.99546   1.00252   1.01057
 Alpha virt. eigenvalues --    1.01178   1.01908   1.07407   1.09796   1.10867
 Alpha virt. eigenvalues --    1.11081   1.11902   1.14718   1.15917   1.16923
 Alpha virt. eigenvalues --    1.21244   1.21250   1.23361   1.23730   1.28922
 Alpha virt. eigenvalues --    1.29000   1.30058   1.33158   1.34453   1.36578
 Alpha virt. eigenvalues --    1.42108   1.46328   1.51202   1.51882   1.53836
 Alpha virt. eigenvalues --    1.55641   1.59790   1.64792   1.65371   1.69968
 Alpha virt. eigenvalues --    1.71645   1.75723   1.80687   1.81691   1.91037
 Alpha virt. eigenvalues --    1.93276   1.96811   2.00384   2.01607   2.01661
 Alpha virt. eigenvalues --    2.04589   2.07580   2.08913   2.13404   2.20479
 Alpha virt. eigenvalues --    2.20678   2.21057   2.21304   2.26397   2.29155
 Alpha virt. eigenvalues --    2.37660   2.44694   2.46205   2.48891   2.71100
 Alpha virt. eigenvalues --    2.71417   2.73193   2.74432   2.76955   2.76985
 Alpha virt. eigenvalues --    2.87489   2.92766   2.96341   3.11643   3.12808
 Alpha virt. eigenvalues --    3.20442   3.34365   3.36387   4.06271   4.07148
 Alpha virt. eigenvalues --    4.17969   4.21288   4.31543   4.40798   4.43498
 Alpha virt. eigenvalues --    4.43664   4.53720   4.60013   4.60190   4.90305
  Beta  occ. eigenvalues -- -101.42692-101.42692-101.42692-101.42692 -18.97085
  Beta  occ. eigenvalues --  -18.97085 -10.12653 -10.12652 -10.11752 -10.11752
  Beta  occ. eigenvalues --  -10.11669 -10.11669  -9.34297  -9.34296  -9.34295
  Beta  occ. eigenvalues --   -9.34295  -7.10699  -7.10698  -7.10696  -7.10695
  Beta  occ. eigenvalues --   -7.09751  -7.09751  -7.09750  -7.09750  -7.09671
  Beta  occ. eigenvalues --   -7.09668  -7.09665  -7.09665  -0.88435  -0.88026
  Beta  occ. eigenvalues --   -0.77171  -0.76767  -0.72498  -0.72111  -0.65936
  Beta  occ. eigenvalues --   -0.58824  -0.52790  -0.45266  -0.44796  -0.38871
  Beta  occ. eigenvalues --   -0.34675  -0.32943  -0.32077  -0.30351  -0.27804
  Beta  occ. eigenvalues --   -0.27111  -0.26999  -0.25686  -0.24464  -0.21250
  Beta  occ. eigenvalues --   -0.20127  -0.20011  -0.19272  -0.19268  -0.18269
  Beta  occ. eigenvalues --   -0.17368  -0.11719  -0.11139  -0.11132  -0.10463
  Beta virt. eigenvalues --    0.04940   0.12977   0.13299   0.15745   0.18587
  Beta virt. eigenvalues --    0.18902   0.22882   0.29662   0.33443   0.38199
  Beta virt. eigenvalues --    0.38447   0.41113   0.43755   0.45972   0.46429
  Beta virt. eigenvalues --    0.47723   0.50795   0.51541   0.54342   0.54434
  Beta virt. eigenvalues --    0.54625   0.54899   0.55367   0.55687   0.56239
  Beta virt. eigenvalues --    0.57273   0.58524   0.59199   0.59992   0.64812
  Beta virt. eigenvalues --    0.64862   0.66687   0.67347   0.72814   0.73635
  Beta virt. eigenvalues --    0.74652   0.76707   0.77538   0.78161   0.78421
  Beta virt. eigenvalues --    0.80213   0.84707   0.88429   0.90383   0.90794
  Beta virt. eigenvalues --    0.94536   0.95439   0.95773   0.97240   0.98731
  Beta virt. eigenvalues --    0.98743   0.99095   0.99612   0.99640   1.00321
  Beta virt. eigenvalues --    1.01174   1.01427   1.02088   1.07714   1.09928
  Beta virt. eigenvalues --    1.10981   1.11161   1.13712   1.15204   1.16057
  Beta virt. eigenvalues --    1.18991   1.21331   1.21531   1.23555   1.23805
  Beta virt. eigenvalues --    1.29306   1.29749   1.30226   1.33324   1.35190
  Beta virt. eigenvalues --    1.36756   1.42590   1.46629   1.51464   1.51979
  Beta virt. eigenvalues --    1.54674   1.56046   1.60743   1.65490   1.65920
  Beta virt. eigenvalues --    1.70506   1.72191   1.75744   1.80889   1.82144
  Beta virt. eigenvalues --    1.92308   1.93664   1.98202   2.00835   2.01941
  Beta virt. eigenvalues --    2.02506   2.04737   2.08902   2.09809   2.13737
  Beta virt. eigenvalues --    2.21198   2.21432   2.21457   2.21896   2.27341
  Beta virt. eigenvalues --    2.29913   2.38499   2.45446   2.46484   2.49148
  Beta virt. eigenvalues --    2.71836   2.72007   2.74441   2.74848   2.77255
  Beta virt. eigenvalues --    2.78189   2.87654   2.93009   2.97012   3.12140
  Beta virt. eigenvalues --    3.12976   3.21088   3.34528   3.36533   4.06847
  Beta virt. eigenvalues --    4.07693   4.18220   4.21745   4.31743   4.40968
  Beta virt. eigenvalues --    4.43694   4.43754   4.53909   4.60492   4.60595
  Beta virt. eigenvalues --    4.90705
          Condensed to atoms (all electrons):
               1          2          3          4          5          6
     1  O    8.111987   0.588811  -0.105798   0.014126   0.005700  -0.000088
     2  C    0.588811   4.503801   0.307148  -0.050322  -0.009843   0.002363
     3  C   -0.105798   0.307148   5.572211   0.209331   0.399157  -0.079265
     4  Cl   0.014126  -0.050322   0.209331  16.934868  -0.079265  -0.000132
     5  C    0.005700  -0.009843   0.399157  -0.079265   5.572211   0.209331
     6  Cl  -0.000088   0.002363  -0.079265  -0.000132   0.209331  16.934868
     7  C   -0.105798   0.307148  -0.107610   0.007435  -0.034881  -0.000340
     8  Cl   0.014126  -0.050322   0.007435  -0.000247  -0.000340   0.000017
     9  C    0.005700  -0.009843  -0.034881  -0.000340  -0.107610   0.007435
    10  Cl  -0.000088   0.002363  -0.000340   0.000017   0.007435  -0.000247
    11  C   -0.000169  -0.021630  -0.009843   0.002363   0.307148  -0.050322
    12  O   -0.000000  -0.000169   0.005700  -0.000088  -0.105798   0.014126
               7          8          9         10         11         12
     1  O   -0.105798   0.014126   0.005700  -0.000088  -0.000169  -0.000000
     2  C    0.307148  -0.050322  -0.009843   0.002363  -0.021630  -0.000169
     3  C   -0.107610   0.007435  -0.034881  -0.000340  -0.009843   0.005700
     4  Cl   0.007435  -0.000247  -0.000340   0.000017   0.002363  -0.000088
     5  C   -0.034881  -0.000340  -0.107610   0.007435   0.307148  -0.105798
     6  Cl  -0.000340   0.000017   0.007435  -0.000247  -0.050322   0.014126
     7  C    5.572211   0.209331   0.399157  -0.079265  -0.009843   0.005700
     8  Cl   0.209331  16.934868  -0.079265  -0.000132   0.002363  -0.000088
     9  C    0.399157  -0.079265   5.572211   0.209331   0.307148  -0.105798
    10  Cl  -0.079265  -0.000132   0.209331  16.934868  -0.050322   0.014126
    11  C   -0.009843   0.002363   0.307148  -0.050322   4.503801   0.588811
    12  O    0.005700  -0.000088  -0.105798   0.014126   0.588811   8.111987
          Atomic-Atomic Spin Densities.
               1          2          3          4          5          6
     1  O    0.332330  -0.067899  -0.007611   0.001062   0.000534  -0.000003
     2  C   -0.067899   0.067468   0.043611  -0.003016  -0.007342   0.000112
     3  C   -0.007611   0.043611   0.123469  -0.010662  -0.060048   0.003904
     4  Cl   0.001062  -0.003016  -0.010662   0.013447   0.003904  -0.000608
     5  C    0.000534  -0.007342  -0.060048   0.003904   0.123469  -0.010662
     6  Cl  -0.000003   0.000112   0.003904  -0.000608  -0.010662   0.013447
     7  C   -0.007611   0.043611   0.005713  -0.000204  -0.003762   0.000040
     8  Cl   0.001062  -0.003016  -0.000204   0.000007   0.000040  -0.000001
     9  C    0.000534  -0.007342  -0.003762   0.000040   0.005713  -0.000204
    10  Cl  -0.000003   0.000112   0.000040  -0.000001  -0.000204   0.000007
    11  C    0.000058  -0.002254  -0.007342   0.000112   0.043611  -0.003016
    12  O   -0.000000   0.000058   0.000534  -0.000003  -0.007611   0.001062
               7          8          9         10         11         12
     1  O   -0.007611   0.001062   0.000534  -0.000003   0.000058  -0.000000
     2  C    0.043611  -0.003016  -0.007342   0.000112  -0.002254   0.000058
     3  C    0.005713  -0.000204  -0.003762   0.000040  -0.007342   0.000534
     4  Cl  -0.000204   0.000007   0.000040  -0.000001   0.000112  -0.000003
     5  C   -0.003762   0.000040   0.005713  -0.000204   0.043611  -0.007611
     6  Cl   0.000040  -0.000001  -0.000204   0.000007  -0.003016   0.001062
     7  C    0.123469  -0.010662  -0.060048   0.003904  -0.007342   0.000534
     8  Cl  -0.010662   0.013447   0.003904  -0.000608   0.000112  -0.000003
     9  C   -0.060048   0.003904   0.123469  -0.010662   0.043611  -0.007611
    10  Cl   0.003904  -0.000608  -0.010662   0.013447  -0.003016   0.001062
    11  C   -0.007342   0.000112   0.043611  -0.003016   0.067468  -0.067899
    12  O    0.000534  -0.000003  -0.007611   0.001062  -0.067899   0.332330
 Mulliken charges and spin densities:
               1          2
     1  O   -0.528511   0.252453
     2  C    0.430495   0.064102
     3  C   -0.163247   0.087643
     4  Cl  -0.037746   0.004079
     5  C   -0.163247   0.087643
     6  Cl  -0.037746   0.004079
     7  C   -0.163247   0.087643
     8  Cl  -0.037746   0.004079
     9  C   -0.163247   0.087643
    10  Cl  -0.037746   0.004079
    11  C    0.430495   0.064102
    12  O   -0.528511   0.252453
 Sum of Mulliken charges =  -1.00000   1.00000
 Mulliken charges and spin densities with hydrogens summed into heavy atoms:
               1          2
     1  O   -0.528511   0.252453
     2  C    0.430495   0.064102
     3  C   -0.163247   0.087643
     4  Cl  -0.037746   0.004079
     5  C   -0.163247   0.087643
     6  Cl  -0.037746   0.004079
     7  C   -0.163247   0.087643
     8  Cl  -0.037746   0.004079
     9  C   -0.163247   0.087643
    10  Cl  -0.037746   0.004079
    11  C    0.430495   0.064102
    12  O   -0.528511   0.252453
 Electronic spatial extent (au):  <R**2>=           3341.0732
 Charge=             -1.0000 electrons
 Dipole moment (field-independent basis, Debye):
    X=             -0.0000    Y=              0.0000    Z=             -0.0000  Tot=              0.0000
 Quadrupole moment (field-independent basis, Debye-Ang):
   XX=            -94.3113   YY=           -112.5617   ZZ=           -126.6649
   XY=             -0.0000   XZ=              0.0000   YZ=              0.0000
 Traceless Quadrupole moment (field-independent basis, Debye-Ang):
   XX=             16.8680   YY=             -1.3824   ZZ=            -15.4856
   XY=             -0.0000   XZ=              0.0000   YZ=              0.0000
 Octapole moment (field-independent basis, Debye-Ang**2):
  XXX=              0.0000  YYY=             -0.0000  ZZZ=             -0.0000  XYY=              0.0000
  XXY=              0.0000  XXZ=              0.0000  XZZ=             -0.0000  YZZ=             -0.0000
  YYZ=             -0.0000  XYZ=              0.0000
 Hexadecapole moment (field-independent basis, Debye-Ang**3):
 XXXX=            -97.4617 YYYY=          -2631.2249 ZZZZ=          -1775.9220 XXXY=             -0.0000
 XXXZ=              0.0000 YYYX=             -0.0000 YYYZ=             -0.0000 ZZZX=              0.0000
 ZZZY=             -0.0000 XXYY=           -452.4917 XXZZ=           -272.4477 YYZZ=           -694.0481
 XXYZ=             -0.0000 YYXZ=              0.0000 ZZXY=             -0.0000
 N-N= 1.069718025948D+03 E-N=-7.418177255129D+03  KE= 2.211263081663D+03
 Symmetry AG   KE= 5.523423408849D+02
 Symmetry B1G  KE= 4.814771181578D+01
 Symmetry B2G  KE= 5.089663668949D+01
 Symmetry B3G  KE= 4.550247680061D+02
 Symmetry AU   KE= 4.559348427266D+01
 Symmetry B1U  KE= 5.505975800043D+02
 Symmetry B2U  KE= 4.569952355705D+02
 Symmetry B3U  KE= 5.166532441967D+01
 Symmetry AG   SP= 8.674635513487D-15
 Symmetry B1G  SP= 3.706480651913D-15
 Symmetry B2G  SP= 1.000000000000D+00
 Symmetry B3G  SP= 3.670377778361D-15
 Symmetry AU   SP= 2.570877132057D-15
 Symmetry B1U  SP=-2.471934789971D-15
 Symmetry B2U  SP= 2.009126914317D-14
 Symmetry B3U  SP=-5.431202362849D-15
                          Isotropic Fermi Contact Couplings
        Atom                 a.u.       MegaHertz       Gauss      10(-4) cm-1
     1  O(17)              0.03689     -22.35997      -7.97859      -7.45848
     2  C(13)             -0.00181      -2.03747      -0.72702      -0.67963
     3  C(13)              0.00542       6.09169       2.17367       2.03197
     4  Cl(35)             0.00008       0.03707       0.01323       0.01237
     5  C(13)              0.00542       6.09169       2.17367       2.03197
     6  Cl(35)             0.00008       0.03707       0.01323       0.01237
     7  C(13)              0.00542       6.09169       2.17367       2.03197
     8  Cl(35)             0.00008       0.03707       0.01323       0.01237
     9  C(13)              0.00542       6.09169       2.17367       2.03197
    10  Cl(35)             0.00008       0.03707       0.01323       0.01237
    11  C(13)             -0.00181      -2.03747      -0.72702      -0.67963
    12  O(17)              0.03689     -22.35997      -7.97859      -7.45848
 --------------------------------------------------------
       Center         ----  Spin Dipole Couplings  ----
                      3XX-RR        3YY-RR        3ZZ-RR
 --------------------------------------------------------
     1   Atom        0.999827     -0.495872     -0.503955
     2   Atom        0.086084     -0.058961     -0.027123
     3   Atom        0.107391     -0.054827     -0.052564
     4   Atom        0.067281     -0.039090     -0.028191
     5   Atom        0.107391     -0.054827     -0.052564
     6   Atom        0.067281     -0.039090     -0.028191
     7   Atom        0.107391     -0.054827     -0.052564
     8   Atom        0.067281     -0.039090     -0.028191
     9   Atom        0.107391     -0.054827     -0.052564
    10   Atom        0.067281     -0.039090     -0.028191
    11   Atom        0.086084     -0.058961     -0.027123
    12   Atom        0.999827     -0.495872     -0.503955
 --------------------------------------------------------
                        XY            XZ            YZ
 --------------------------------------------------------
     1   Atom        0.000000      0.000000      0.000000
     2   Atom       -0.000000     -0.000000      0.000000
     3   Atom       -0.000000     -0.000000     -0.000224
     4   Atom       -0.000000     -0.000000     -0.011105
     5   Atom        0.000000     -0.000000      0.000224
     6   Atom       -0.000000     -0.000000      0.011105
     7   Atom       -0.000000     -0.000000      0.000224
     8   Atom        0.000000      0.000000      0.011105
     9   Atom       -0.000000      0.000000     -0.000224
    10   Atom        0.000000     -0.000000     -0.011105
    11   Atom       -0.000000      0.000000     -0.000000
    12   Atom        0.000000     -0.000000      0.000000
 --------------------------------------------------------


 ---------------------------------------------------------------------------------
              Anisotropic Spin Dipole Couplings in Principal Axis System
 ---------------------------------------------------------------------------------

       Atom             a.u.   MegaHertz   Gauss  10(-4) cm-1        Axes

              Baa    -0.5040    36.466    13.012    12.164  0.0000  0.0000  1.0000
     1 O(17)  Bbb    -0.4959    35.881    12.803    11.969  0.0000  1.0000 -0.0000
              Bcc     0.9998   -72.347   -25.815   -24.132  1.0000 -0.0000 -0.0000
 
              Baa    -0.0590    -7.912    -2.823    -2.639  0.0000  1.0000 -0.0000
     2 C(13)  Bbb    -0.0271    -3.640    -1.299    -1.214  0.0000  0.0000  1.0000
              Bcc     0.0861    11.552     4.122     3.853  1.0000  0.0000 -0.0000
 
              Baa    -0.0548    -7.360    -2.626    -2.455  0.0000  0.9952  0.0976
     3 C(13)  Bbb    -0.0525    -7.051    -2.516    -2.352  0.0000 -0.0976  0.9952
              Bcc     0.1074    14.411     5.142     4.807  1.0000 -0.0000 -0.0000
 
              Baa    -0.0460    -2.408    -0.859    -0.803  0.0000  0.8487  0.5289
     4 Cl(35) Bbb    -0.0213    -1.113    -0.397    -0.371 -0.0000 -0.5289  0.8487
              Bcc     0.0673     3.521     1.256     1.175  1.0000 -0.0000  0.0000
 
              Baa    -0.0548    -7.360    -2.626    -2.455 -0.0000  0.9952 -0.0976
     5 C(13)  Bbb    -0.0525    -7.051    -2.516    -2.352  0.0000  0.0976  0.9952
              Bcc     0.1074    14.411     5.142     4.807  1.0000  0.0000 -0.0000
 
              Baa    -0.0460    -2.408    -0.859    -0.803 -0.0000  0.8487 -0.5289
     6 Cl(35) Bbb    -0.0213    -1.113    -0.397    -0.371 -0.0000  0.5289  0.8487
              Bcc     0.0673     3.521     1.256     1.175  1.0000  0.0000  0.0000
 
              Baa    -0.0548    -7.360    -2.626    -2.455  0.0000  0.9952 -0.0976
     7 C(13)  Bbb    -0.0525    -7.051    -2.516    -2.352  0.0000  0.0976  0.9952
              Bcc     0.1074    14.411     5.142     4.807  1.0000 -0.0000 -0.0000
 
              Baa    -0.0460    -2.408    -0.859    -0.803  0.0000  0.8487 -0.5289
     8 Cl(35) Bbb    -0.0213    -1.113    -0.397    -0.371  0.0000  0.5289  0.8487
              Bcc     0.0673     3.521     1.256     1.175  1.0000 -0.0000  0.0000
 
              Baa    -0.0548    -7.360    -2.626    -2.455  0.0000  0.9952  0.0976
     9 C(13)  Bbb    -0.0525    -7.051    -2.516    -2.352 -0.0000 -0.0976  0.9952
              Bcc     0.1074    14.411     5.142     4.807  1.0000 -0.0000  0.0000
 
              Baa    -0.0460    -2.408    -0.859    -0.803  0.0000  0.8487  0.5289
    10 Cl(35) Bbb    -0.0213    -1.113    -0.397    -0.371 -0.0000 -0.5289  0.8487
              Bcc     0.0673     3.521     1.256     1.175  1.0000 -0.0000  0.0000
 
              Baa    -0.0590    -7.912    -2.823    -2.639 -0.0000  1.0000  0.0000
    11 C(13)  Bbb    -0.0271    -3.640    -1.299    -1.214 -0.0000 -0.0000  1.0000
              Bcc     0.0861    11.552     4.122     3.853  1.0000  0.0000  0.0000
 
              Baa    -0.5040    36.466    13.012    12.164  0.0000  0.0000  1.0000
    12 O(17)  Bbb    -0.4959    35.881    12.803    11.969 -0.0000  1.0000 -0.0000
              Bcc     0.9998   -72.347   -25.815   -24.132  1.0000  0.0000  0.0000
 

 ---------------------------------------------------------------------------------

 No NMR shielding tensors so no spin-rotation constants.
 Leave Link  601 at Tue Jun  3 11:51:49 2025, MaxMem=  4697620480 cpu:              72.4 elap:               2.8
 (Enter /opt/ebsofts/Gaussian/g16/l701.exe)
 ... and contract with generalized density number  0.
 Compute integral first derivatives.
 Leave Link  701 at Tue Jun  3 11:51:50 2025, MaxMem=  4697620480 cpu:              15.8 elap:               0.7
 (Enter /opt/ebsofts/Gaussian/g16/l702.exe)
 L702 exits ... SP integral derivatives will be done elsewhere.
 Leave Link  702 at Tue Jun  3 11:51:50 2025, MaxMem=  4697620480 cpu:               2.6 elap:               0.2
 (Enter /opt/ebsofts/Gaussian/g16/l703.exe)
 Integral derivatives from FoFJK, PRISM(SPDF).
 Compute integral first derivatives, UseDBF=F ICtDFT=           0.
 Calling FoFJK, ICntrl=      2127 FMM=F ISym2X=1 I1Cent= 0 IOpClX= 1 NMat=1 NMatS=1 NMatT=0.
 FoFJK:  IHMeth= 1 ICntrl=    2127 DoSepK=F KAlg= 0 I1Cent=           0 FoldK=F
 IRaf=         0 NMat=       1 IRICut=       1 DoRegI=T DoRafI=F ISym2E= 1 IDoP0=0 IntGTp=1.
 FoFCou: FMM=F IPFlag=           0 FMFlag=      100000 FMFlg1=         800
         NFxFlg=           0 DoJE=F BraDBF=F KetDBF=F FulRan=T
         wScrn=  0.000000 ICntrl=      2127 IOpCl=  1 I1Cent=           0 NGrid=           0
         NMat0=    1 NMatS0=      1 NMatT0=    0 NMatD0=    1 NMtDS0=    0 NMtDT0=    0
 Petite list used in FoFCou.
 Leave Link  703 at Tue Jun  3 11:51:53 2025, MaxMem=  4697620480 cpu:              75.7 elap:               3.0
 (Enter /opt/ebsofts/Gaussian/g16/l716.exe)
 Dipole        =-8.72808842D-17 7.10542736D-15-7.10542736D-15
 ***** Axes restored to original set *****
 -------------------------------------------------------------------
 Center     Atomic                   Forces (Hartrees/Bohr)
 Number     Number              X              Y              Z
 -------------------------------------------------------------------
      1        8          -0.041346724    0.000000000    0.000000000
      2        6           0.026790000    0.000000000    0.000000000
      3        6          -0.023400530    0.020697199   -0.000000000
      4       17          -0.006314460   -0.007341294   -0.000000000
      5        6           0.023400530    0.020697199   -0.000000000
      6       17           0.006314460   -0.007341294    0.000000000
      7        6          -0.023400530   -0.020697199    0.000000000
      8       17          -0.006314460    0.007341294   -0.000000000
      9        6           0.023400530   -0.020697199   -0.000000000
     10       17           0.006314460    0.007341294   -0.000000000
     11        6          -0.026790000   -0.000000000   -0.000000000
     12        8           0.041346724   -0.000000000    0.000000000
 -------------------------------------------------------------------
 Cartesian Forces:  Max     0.041346724 RMS     0.015928150
 Leave Link  716 at Tue Jun  3 11:51:53 2025, MaxMem=  4697620480 cpu:               2.2 elap:               0.2
 (Enter /opt/ebsofts/Gaussian/g16/l103.exe)

 GradGradGradGradGradGradGradGradGradGradGradGradGradGradGradGradGradGrad
 Berny optimization.
 FormGI is forming the generalized inverse of G from B-inverse, IUseBI=4.
 Internal  Forces:  Max     0.041346724 RMS     0.012067272
 Search for a local minimum.
 Step number   1 out of a maximum of   64
 All quantities printed in internal units (Hartrees-Bohrs-Radians)
 RMS Force = .12067D-01 SwitMx=.10000D-02 MixMth= 1
 Mixed Optimization -- RFO/linear search
 Second derivative matrix not updated -- first step.
 ITU=  0
     Eigenvalues ---    0.01005   0.01005   0.01005   0.01661   0.01688
     Eigenvalues ---    0.01995   0.02007   0.02241   0.02311   0.25000
     Eigenvalues ---    0.25000   0.25000   0.25000   0.25000   0.25000
     Eigenvalues ---    0.25000   0.25000   0.25000   0.32565   0.32565
     Eigenvalues ---    0.32565   0.32565   0.32744   0.33702   0.34346
     Eigenvalues ---    0.34346   0.53769   0.57177   0.95493   0.95493
 RFO step:  Lambda=-1.41224220D-02 EMin= 1.00457730D-02
 Linear search not attempted -- first point.
 Iteration  1 RMS(Cart)=  0.03758215 RMS(Int)=  0.00035419
 Iteration  2 RMS(Cart)=  0.00039432 RMS(Int)=  0.00000005
 Iteration  3 RMS(Cart)=  0.00000008 RMS(Int)=  0.00000000
 ITry= 1 IFail=0 DXMaxC= 1.32D-01 DCOld= 1.00D+10 DXMaxT= 3.00D-01 DXLimC= 3.00D+00 Rises=F
 ClnCor:  largest displacement from symmetrization is 3.30D-11 for atom     1.
 Variable       Old X    -DE/DX   Delta X   Delta X   Delta X     New X
                                 (Linear)    (Quad)   (Total)
    R1        2.30500   0.04135   0.00000   0.04267   0.04267   2.34767
    R2        2.80050  -0.00764   0.00000  -0.02137  -0.02137   2.77913
    R3        2.80050  -0.00764   0.00000  -0.02137  -0.02137   2.77913
    R4        3.26822   0.00959   0.00000   0.02823   0.02823   3.29645
    R5        2.53247   0.03699   0.00000   0.06314   0.06314   2.59561
    R6        3.26822   0.00959   0.00000   0.02823   0.02823   3.29645
    R7        2.80050  -0.00764   0.00000  -0.02137  -0.02137   2.77913
    R8        3.26822   0.00959   0.00000   0.02823   0.02823   3.29645
    R9        2.53247   0.03699   0.00000   0.06314   0.06314   2.59561
   R10        3.26822   0.00959   0.00000   0.02823   0.02823   3.29645
   R11        2.80050  -0.00764   0.00000  -0.02137  -0.02137   2.77913
   R12        2.30500   0.04135   0.00000   0.04267   0.04267   2.34767
    A1        2.11617   0.00770   0.00000   0.02917   0.02917   2.14533
    A2        2.11617   0.00770   0.00000   0.02917   0.02917   2.14533
    A3        2.05085  -0.01541   0.00000  -0.05833  -0.05833   1.99252
    A4        2.02302  -0.00602   0.00000  -0.02277  -0.02277   2.00025
    A5        2.11617   0.00770   0.00000   0.02917   0.02917   2.14533
    A6        2.14400  -0.00169   0.00000  -0.00639  -0.00639   2.13760
    A7        2.14400  -0.00169   0.00000  -0.00639  -0.00639   2.13760
    A8        2.11617   0.00770   0.00000   0.02917   0.02917   2.14533
    A9        2.02302  -0.00602   0.00000  -0.02277  -0.02277   2.00025
   A10        2.02302  -0.00602   0.00000  -0.02277  -0.02277   2.00025
   A11        2.11617   0.00770   0.00000   0.02917   0.02917   2.14533
   A12        2.14400  -0.00169   0.00000  -0.00639  -0.00639   2.13760
   A13        2.14400  -0.00169   0.00000  -0.00639  -0.00639   2.13760
   A14        2.11617   0.00770   0.00000   0.02917   0.02917   2.14533
   A15        2.02302  -0.00602   0.00000  -0.02277  -0.02277   2.00025
   A16        2.05085  -0.01541   0.00000  -0.05833  -0.05833   1.99252
   A17        2.11617   0.00770   0.00000   0.02917   0.02917   2.14533
   A18        2.11617   0.00770   0.00000   0.02917   0.02917   2.14533
    D1       -0.00000   0.00000   0.00000   0.00000   0.00000   0.00000
    D2        3.14159   0.00000   0.00000   0.00000   0.00000   3.14159
    D3        3.14159   0.00000   0.00000   0.00000   0.00000   3.14159
    D4       -0.00000   0.00000   0.00000   0.00000   0.00000   0.00000
    D5       -0.00000  -0.00000   0.00000  -0.00000   0.00000   0.00000
    D6        3.14159  -0.00000   0.00000  -0.00000   0.00000   3.14159
    D7        3.14159  -0.00000   0.00000  -0.00000   0.00000   3.14159
    D8        0.00000  -0.00000   0.00000  -0.00000   0.00000   0.00000
    D9        3.14159  -0.00000   0.00000  -0.00000   0.00000   3.14159
   D10        0.00000  -0.00000   0.00000  -0.00000   0.00000   0.00000
   D11       -0.00000  -0.00000   0.00000  -0.00000   0.00000   0.00000
   D12        3.14159  -0.00000   0.00000  -0.00000   0.00000   3.14159
   D13        0.00000  -0.00000   0.00000  -0.00000   0.00000   0.00000
   D14        3.14159  -0.00000   0.00000  -0.00000   0.00000   3.14159
   D15        3.14159  -0.00000   0.00000  -0.00000   0.00000   3.14159
   D16        0.00000  -0.00000   0.00000  -0.00000   0.00000   0.00000
   D17        3.14159  -0.00000   0.00000  -0.00000   0.00000   3.14159
   D18        0.00000  -0.00000   0.00000  -0.00000   0.00000   0.00000
   D19        0.00000  -0.00000   0.00000  -0.00000   0.00000   0.00000
   D20        3.14159  -0.00000   0.00000  -0.00000   0.00000   3.14159
   D21       -0.00000   0.00000   0.00000   0.00000   0.00000   0.00000
   D22        3.14159   0.00000   0.00000   0.00000   0.00000   3.14159
   D23        3.14159   0.00000   0.00000   0.00000   0.00000   3.14159
   D24       -0.00000   0.00000   0.00000   0.00000   0.00000   0.00000
         Item               Value     Threshold  Converged?
 Maximum Force            0.041347     0.000450     NO 
 RMS     Force            0.012067     0.000300     NO 
 Maximum Displacement     0.131824     0.001800     NO 
 RMS     Displacement     0.037474     0.001200     NO 
 Predicted change in Energy=-7.290546D-03
 Lowest energy point so far.  Saving SCF results.
 GradGradGradGradGradGradGradGradGradGradGradGradGradGradGradGradGradGrad

 Leave Link  103 at Tue Jun  3 11:51:54 2025, MaxMem=  4697620480 cpu:              13.2 elap:               0.5
 (Enter /opt/ebsofts/Gaussian/g16/l202.exe)
                          Input orientation:                          
 ---------------------------------------------------------------------
 Center     Atomic      Atomic             Coordinates (Angstroms)
 Number     Number       Type             X           Y           Z
 ---------------------------------------------------------------------
      1          8           0       -2.728318    0.000000   -0.000000
      2          6           0       -1.485987    0.000000   -0.000000
      3          6           0       -0.686768   -1.234529   -0.000000
      4         17           0       -1.623414   -2.706144   -0.000000
      5          6           0        0.686768   -1.234529   -0.000000
      6         17           0        1.623414   -2.706144   -0.000000
      7          6           0       -0.686768    1.234529    0.000000
      8         17           0       -1.623414    2.706144    0.000000
      9          6           0        0.686768    1.234529    0.000000
     10         17           0        1.623414    2.706144    0.000000
     11          6           0        1.485987    0.000000   -0.000000
     12          8           0        2.728318    0.000000   -0.000000
 ---------------------------------------------------------------------
                    Distance matrix (angstroms):
                    1          2          3          4          5
     1  O    0.000000
     2  C    1.242331   0.000000
     3  C    2.385788   1.470650   0.000000
     4  Cl   2.923017   2.709632   1.744408   0.000000
     5  C    3.631374   2.498985   1.373537   2.739087   0.000000
     6  Cl   5.124528   4.122086   2.739087   3.246828   1.744408
     7  C    2.385788   1.470650   2.469057   4.050458   2.825393
     8  Cl   2.923017   2.709632   4.050458   5.412289   4.567915
     9  C    3.631374   2.498985   2.825393   4.567915   2.469057
    10  Cl   5.124528   4.122086   4.567915   6.311479   4.050458
    11  C    4.214305   2.971974   2.498985   4.122086   1.470650
    12  O    5.456636   4.214305   3.631374   5.124528   2.385788
                    6          7          8          9         10
     6  Cl   0.000000
     7  C    4.567915   0.000000
     8  Cl   6.311479   1.744408   0.000000
     9  C    4.050458   1.373537   2.739087   0.000000
    10  Cl   5.412289   2.739087   3.246828   1.744408   0.000000
    11  C    2.709632   2.498985   4.122086   1.470650   2.709632
    12  O    2.923017   3.631374   5.124528   2.385788   2.923017
                   11         12
    11  C    0.000000
    12  O    1.242331   0.000000
 Stoichiometry    C6Cl4O2(1-,2)
 Framework group  D2H[C2"(OC.CO),SG(C4Cl4)]
 Deg. of freedom     6
 Prev. full point group           D2H     NOp   8
 Prev. largest Abelian subgroup   D2H     NOp   8
       concise Abelian subgroup   D2      NOp   4
                   Standard orientation:
 ---------------------------------------------------------------------
 Center     Atomic                     Coordinates (Angstroms)
 Number     Number                        X           Y           Z
 ---------------------------------------------------------------------
      1          8                    0.000000    0.000000    2.728318
      2          6                    0.000000    0.000000    1.485987
      3          6                    0.000000    1.234529    0.686768
      4         17                    0.000000    2.706144    1.623414
      5          6                    0.000000    1.234529   -0.686768
      6         17                    0.000000    2.706144   -1.623414
      7          6                    0.000000   -1.234529    0.686768
      8         17                    0.000000   -2.706144    1.623414
      9          6                    0.000000   -1.234529   -0.686768
     10         17                    0.000000   -2.706144   -1.623414
     11          6                    0.000000    0.000000   -1.485987
     12          8                    0.000000    0.000000   -2.728318
 ---------------------------------------------------------------------
 Rotational constants (GHZ):           0.7405947           0.4604850           0.2839385
 Leave Link  202 at Tue Jun  3 11:51:54 2025, MaxMem=  4697620480 cpu:               3.0 elap:               0.2
 (Enter /opt/ebsofts/Gaussian/g16/l301.exe)
 Standard basis: 6-31G(d,p) (6D, 7F)
 Ernie: Thresh=  0.10000D-02 Tol=  0.10000D-05 Strict=F.
 There are    41 symmetry adapted cartesian basis functions of AG  symmetry.
 There are    11 symmetry adapted cartesian basis functions of B1G symmetry.
 There are    15 symmetry adapted cartesian basis functions of B2G symmetry.
 There are    31 symmetry adapted cartesian basis functions of B3G symmetry.
 There are    11 symmetry adapted cartesian basis functions of AU  symmetry.
 There are    41 symmetry adapted cartesian basis functions of B1U symmetry.
 There are    31 symmetry adapted cartesian basis functions of B2U symmetry.
 There are    15 symmetry adapted cartesian basis functions of B3U symmetry.
 There are    41 symmetry adapted basis functions of AG  symmetry.
 There are    11 symmetry adapted basis functions of B1G symmetry.
 There are    15 symmetry adapted basis functions of B2G symmetry.
 There are    31 symmetry adapted basis functions of B3G symmetry.
 There are    11 symmetry adapted basis functions of AU  symmetry.
 There are    41 symmetry adapted basis functions of B1U symmetry.
 There are    31 symmetry adapted basis functions of B2U symmetry.
 There are    15 symmetry adapted basis functions of B3U symmetry.
   196 basis functions,   432 primitive gaussians,   196 cartesian basis functions
    61 alpha electrons       60 beta electrons
       nuclear repulsion energy      1064.1498996373 Hartrees.
 IExCor=  402 DFT=T Ex+Corr=B3LYP ExCW=0 ScaHFX=  0.200000
 ScaDFX=  0.800000  0.720000  1.000000  0.810000 ScalE2=  1.000000  1.000000
 IRadAn=      5 IRanWt=     -1 IRanGd=            0 ICorTp=0 IEmpDi=  4
 NAtoms=   12 NActive=   12 NUniq=    4 SFac= 4.00D+00 NAtFMM=   60 NAOKFM=F Big=F
 Integral buffers will be    131072 words long.
 Raffenetti 2 integral format.
 Two-electron integral symmetry is turned on.
 Leave Link  301 at Tue Jun  3 11:51:54 2025, MaxMem=  4697620480 cpu:               2.5 elap:               0.2
 (Enter /opt/ebsofts/Gaussian/g16/l302.exe)
 NPDir=0 NMtPBC=     1 NCelOv=     1 NCel=       1 NClECP=     1 NCelD=      1
         NCelK=      1 NCelE2=     1 NClLst=     1 CellRange=     0.0.
 One-electron integrals computed using PRISM.
 One-electron integral symmetry used in STVInt
 NBasis=   196 RedAO= T EigKep=  5.19D-04  NBF=    41    11    15    31    11    41    31    15
 NBsUse=   196 1.00D-06 EigRej= -1.00D+00 NBFU=    41    11    15    31    11    41    31    15
 Precomputing XC quadrature grid using
 IXCGrd= 4 IRadAn=           5 IRanWt=          -1 IRanGd=           0 AccXCQ= 0.00D+00.
 Generated NRdTot=       0 NPtTot=           0 NUsed=           0 NTot=          32
 NSgBfM=   193   193   193   193   193 MxSgAt=    12 MxSgA2=    12.
 Leave Link  302 at Tue Jun  3 11:51:57 2025, MaxMem=  4697620480 cpu:              71.0 elap:               2.5
 (Enter /opt/ebsofts/Gaussian/g16/l303.exe)
 DipDrv:  MaxL=1.
 Leave Link  303 at Tue Jun  3 11:51:57 2025, MaxMem=  4697620480 cpu:               5.8 elap:               0.3
 (Enter /opt/ebsofts/Gaussian/g16/l401.exe)
 Initial guess from the checkpoint file:  "chloranil_anion_D2h.chk"
 B after Tr=     0.000000   -0.000000    0.000000
         Rot=    1.000000   -0.000000    0.000000   -0.000000 Ang=   0.00 deg.
 Guess basis will be translated and rotated to current coordinates.
 JPrj=2 DoOrth=T DoCkMO=T.
 Initial guess orbital symmetries:
 Alpha Orbitals:
       Occupied  (B1U) (B3G) (AG) (B2U) (B1U) (AG) (B1U) (AG) (B2U)
                 (AG) (B3G) (B1U) (B1U) (B3G) (B2U) (AG) (B1U)
                 (B3G) (B2U) (AG) (B2G) (AU) (B1G) (B3U) (B3G)
                 (B1U) (B2U) (AG) (AG) (B1U) (AG) (B2U) (B3G) (B1U)
                 (AG) (B2U) (B1U) (B3G) (AG) (B2U) (AG) (B1U) (B2U)
                 (B3U) (B3G) (B1U) (AG) (B2G) (B1G) (B3U) (AU)
                 (B2G) (AG) (B2U) (B1U) (B3G) (B3U) (B1G) (B2U)
                 (B3G) (B2G)
       Virtual   (AU) (AG) (B2U) (B3U) (B1U) (B3G) (B2G) (AG) (AG)
                 (B1U) (B2U) (B1U) (B3G) (B2U) (AG) (B1U) (B3G)
                 (B3U) (B1U) (B1G) (B2U) (B3G) (AG) (AG) (B2U)
                 (B2G) (B3G) (AU) (B3U) (AG) (B2U) (B1U) (B3G)
                 (B1G) (B2G) (AG) (B3U) (AU) (B1U) (B1U) (B2G)
                 (AG) (B2U) (B3G) (B1U) (B2U) (B3U) (AG) (B1U)
                 (B1G) (AU) (B1G) (B2G) (B3G) (AG) (B3U) (B1U)
                 (AU) (B3G) (AG) (B2U) (B2G) (B1U) (AG) (B3U) (B3G)
                 (B2U) (B1U) (B2U) (B2G) (B2U) (B3G) (B1U) (B1G)
                 (AG) (AG) (B3G) (B1U) (B2U) (B3U) (B3G) (B2G)
                 (AU) (B3U) (B1G) (AG) (B3G) (B2U) (B1U) (B1G)
                 (AG) (AU) (B1U) (B3U) (B3G) (B2U) (AG) (B1U) (AG)
                 (B2G) (B2U) (AG) (B1U) (B1U) (AU) (B1G) (B2G)
                 (B2U) (B3G) (AU) (AG) (B3U) (B3G) (AG) (B2G) (B1U)
                 (B3G) (B1U) (AG) (B2U) (B1U) (B3G) (B1U) (B1U)
                 (AG) (B2U) (AG) (B3G) (B1U) (AG) (B2U) (B3G) (B1U)
                 (AG) (B1U)
 Beta  Orbitals:
       Occupied  (B1U) (B3G) (AG) (B2U) (B1U) (AG) (B1U) (AG) (B2U)
                 (AG) (B3G) (B1U) (B1U) (B3G) (B2U) (AG) (B1U)
                 (B3G) (B2U) (AG) (B2G) (AU) (B1G) (B3U) (B3G)
                 (B1U) (B2U) (AG) (AG) (B1U) (AG) (B2U) (B3G) (B1U)
                 (AG) (B2U) (B1U) (B3G) (AG) (B2U) (AG) (B1U) (B2U)
                 (B3U) (B3G) (AG) (B1U) (B1G) (B2G) (AU) (B3U)
                 (AG) (B2G) (B2U) (B1U) (B3G) (B3U) (B1G) (B2U)
                 (B3G)
       Virtual   (B2G) (AG) (AU) (B2U) (B1U) (B3U) (B3G) (B2G)
                 (AG) (AG) (B1U) (B2U) (B1U) (B3G) (B2U) (AG) (B1U)
                 (B3G) (B3U) (B1U) (B1G) (B2U) (B3G) (AG) (AG)
                 (B2U) (B2G) (B3G) (AU) (AG) (B3U) (B2U) (B1U)
                 (B3G) (B1G) (B2G) (AG) (B3U) (AU) (B1U) (B1U)
                 (B2G) (AG) (B2U) (B3G) (B1U) (B2U) (B3U) (AG)
                 (B1U) (B1G) (AU) (B2G) (B1G) (B3G) (AG) (B3U)
                 (B1U) (AU) (B3G) (AG) (B2U) (B2G) (B1U) (AG) (B3U)
                 (B2U) (B3G) (B1U) (B2U) (B2U) (B2G) (B3G) (B1U)
                 (B1G) (AG) (AG) (B3G) (B1U) (B2U) (B3U) (B3G)
                 (B2G) (AU) (B3U) (B1G) (AG) (B3G) (B2U) (B1U)
                 (B1G) (AG) (AU) (B1U) (B3G) (B3U) (B2U) (AG) (B1U)
                 (AG) (B2U) (B2G) (AG) (B1U) (B1U) (AU) (B1G) (B2G)
                 (B2U) (B3G) (AU) (AG) (B3U) (B3G) (AG) (B2G) (B1U)
                 (B3G) (B1U) (AG) (B2U) (B1U) (B3G) (B1U) (B1U)
                 (AG) (B2U) (AG) (B3G) (B1U) (AG) (B2U) (B3G) (B1U)
                 (AG) (B1U)
 The electronic state of the initial guess is 2-B2G.
 Initial guess <Sx>= 0.0000 <Sy>= 0.0000 <Sz>= 0.5000 <S**2>= 0.7595 S= 0.5047
 Generating alternative initial guess.
 ExpMin= 1.43D-01 ExpMax= 2.52D+04 ExpMxC= 3.78D+03 IAcc=2 IRadAn=         4 AccDes= 0.00D+00
 Harris functional with IExCor=  402 and IRadAn=       4 diagonalized for initial guess.
 HarFok:  IExCor=  402 AccDes= 0.00D+00 IRadAn=         4 IDoV= 1 UseB2=F ITyADJ=14
 ICtDFT=  3500011 ScaDFX=  1.000000  1.000000  1.000000  1.000000
 FoFCou: FMM=F IPFlag=           0 FMFlag=      100000 FMFlg1=           0
         NFxFlg=           0 DoJE=T BraDBF=F KetDBF=T FulRan=T
[...]
     36  0.000000D+00  0.000000D+00 -0.574179D-01  0.000000D+00  0.000000D+00
               36 
     36  0.272305D-01
 FormGI is forming the generalized inverse of G from B-inverse, IUseBI=4.
 Leave Link  716 at Tue Jun  3 11:53:34 2025, MaxMem=  4697620480 cpu:              11.1 elap:               0.5
 (Enter /opt/ebsofts/Gaussian/g16/l103.exe)

 GradGradGradGradGradGradGradGradGradGradGradGradGradGradGradGradGradGrad
 Berny optimization.
 Red2BG is reusing G-inverse.
 Internal  Forces:  Max     0.000388295 RMS     0.000109455
 Search for a local minimum.
 Step number   1 out of a maximum of    2
 All quantities printed in internal units (Hartrees-Bohrs-Radians)
 Second derivative matrix not updated -- analytic derivatives used.
 ITU=  0
     Eigenvalues ---    0.00985   0.01095   0.01477   0.02104   0.02315
     Eigenvalues ---    0.02514   0.02836   0.03424   0.04240   0.14207
     Eigenvalues ---    0.14347   0.16015   0.17530   0.18717   0.20343
     Eigenvalues ---    0.20740   0.21492   0.24754   0.26163   0.26296
     Eigenvalues ---    0.27146   0.27635   0.32442   0.36023   0.36547
     Eigenvalues ---    0.37447   0.48279   0.53567   0.69491   0.72569
 Angle between quadratic step and forces=  22.55 degrees.
 Linear search not attempted -- first point.
 Iteration  1 RMS(Cart)=  0.00033634 RMS(Int)=  0.00000003
 Iteration  2 RMS(Cart)=  0.00000004 RMS(Int)=  0.00000000
 ITry= 1 IFail=0 DXMaxC= 8.79D-04 DCOld= 1.00D+10 DXMaxT= 3.00D-01 DXLimC= 3.00D+00 Rises=F
 ClnCor:  largest displacement from symmetrization is 8.34D-12 for atom    10.
 Variable       Old X    -DE/DX   Delta X   Delta X   Delta X     New X
                                 (Linear)    (Quad)   (Total)
    R1        2.35607   0.00030   0.00000   0.00046   0.00046   2.35653
    R2        2.76419   0.00012   0.00000   0.00026   0.00026   2.76444
    R3        2.76419   0.00012   0.00000   0.00026   0.00026   2.76444
    R4        3.31291   0.00006   0.00000   0.00021   0.00021   3.31312
    R5        2.59624  -0.00039   0.00000  -0.00076  -0.00076   2.59548
    R6        3.31291   0.00006   0.00000   0.00021   0.00021   3.31312
    R7        2.76419   0.00012   0.00000   0.00026   0.00026   2.76444
    R8        3.31291   0.00006   0.00000   0.00021   0.00021   3.31312
    R9        2.59624  -0.00039   0.00000  -0.00076  -0.00076   2.59548
   R10        3.31291   0.00006   0.00000   0.00021   0.00021   3.31312
   R11        2.76419   0.00012   0.00000   0.00026   0.00026   2.76444
   R12        2.35607   0.00030   0.00000   0.00046   0.00046   2.35653
    A1        2.14853  -0.00006   0.00000  -0.00027  -0.00027   2.14826
    A2        2.14853  -0.00006   0.00000  -0.00027  -0.00027   2.14826
    A3        1.98612   0.00012   0.00000   0.00055   0.00055   1.98667
    A4        2.01115   0.00008   0.00000   0.00022   0.00022   2.01137
    A5        2.14853  -0.00006   0.00000  -0.00027  -0.00027   2.14826
    A6        2.12350  -0.00002   0.00000   0.00006   0.00006   2.12356
    A7        2.12350  -0.00002   0.00000   0.00006   0.00006   2.12356
    A8        2.14853  -0.00006   0.00000  -0.00027  -0.00027   2.14826
    A9        2.01115   0.00008   0.00000   0.00022   0.00022   2.01137
   A10        2.01115   0.00008   0.00000   0.00022   0.00022   2.01137
   A11        2.14853  -0.00006   0.00000  -0.00027  -0.00027   2.14826
   A12        2.12350  -0.00002   0.00000   0.00006   0.00006   2.12356
   A13        2.12350  -0.00002   0.00000   0.00006   0.00006   2.12356
   A14        2.14853  -0.00006   0.00000  -0.00027  -0.00027   2.14826
   A15        2.01115   0.00008   0.00000   0.00022   0.00022   2.01137
   A16        1.98612   0.00012   0.00000   0.00055   0.00055   1.98667
   A17        2.14853  -0.00006   0.00000  -0.00027  -0.00027   2.14826
   A18        2.14853  -0.00006   0.00000  -0.00027  -0.00027   2.14826
    D1        0.00000  -0.00000   0.00000   0.00000   0.00000   0.00000
    D2        3.14159   0.00000   0.00000   0.00000   0.00000   3.14159
    D3        3.14159   0.00000   0.00000   0.00000   0.00000   3.14159
    D4       -0.00000   0.00000   0.00000   0.00000   0.00000   0.00000
    D5       -0.00000  -0.00000   0.00000  -0.00000   0.00000   0.00000
    D6        3.14159  -0.00000   0.00000  -0.00000   0.00000   3.14159
    D7        3.14159  -0.00000   0.00000  -0.00000   0.00000   3.14159
    D8        0.00000  -0.00000   0.00000  -0.00000   0.00000   0.00000
    D9        3.14159  -0.00000   0.00000  -0.00000   0.00000   3.14159
   D10        0.00000  -0.00000   0.00000  -0.00000   0.00000   0.00000
   D11        0.00000  -0.00000   0.00000  -0.00000   0.00000   0.00000
   D12        3.14159   0.00000   0.00000   0.00000   0.00000   3.14159
   D13        0.00000  -0.00000   0.00000  -0.00000   0.00000   0.00000
   D14        3.14159  -0.00000   0.00000  -0.00000   0.00000   3.14159
   D15        3.14159   0.00000   0.00000  -0.00000   0.00000   3.14159
   D16       -0.00000  -0.00000   0.00000  -0.00000   0.00000   0.00000
   D17        3.14159  -0.00000   0.00000  -0.00000   0.00000   3.14159
   D18        0.00000  -0.00000   0.00000  -0.00000   0.00000   0.00000
   D19        0.00000   0.00000   0.00000  -0.00000   0.00000   0.00000
   D20        3.14159  -0.00000   0.00000  -0.00000   0.00000   3.14159
   D21       -0.00000   0.00000   0.00000   0.00000   0.00000   0.00000
   D22        3.14159   0.00000   0.00000   0.00000   0.00000   3.14159
   D23        3.14159   0.00000   0.00000   0.00000   0.00000   3.14159
   D24       -0.00000   0.00000   0.00000   0.00000   0.00000   0.00000
         Item               Value     Threshold  Converged?
 Maximum Force            0.000388     0.000450     YES
 RMS     Force            0.000109     0.000300     YES
 Maximum Displacement     0.000879     0.001800     YES
 RMS     Displacement     0.000336     0.001200     YES
 Predicted change in Energy=-6.887944D-07
 Optimization completed.
    -- Stationary point found.
                           ----------------------------
                           !   Optimized Parameters   !
                           ! (Angstroms and Degrees)  !
 --------------------------                            --------------------------
 ! Name  Definition              Value          Derivative Info.                !
 --------------------------------------------------------------------------------
 ! R1    R(1,2)                  1.2468         -DE/DX =    0.0003              !
 ! R2    R(2,3)                  1.4627         -DE/DX =    0.0001              !
 ! R3    R(2,7)                  1.4627         -DE/DX =    0.0001              !
 ! R4    R(3,4)                  1.7531         -DE/DX =    0.0001              !
 ! R5    R(3,5)                  1.3739         -DE/DX =   -0.0004              !
 ! R6    R(5,6)                  1.7531         -DE/DX =    0.0001              !
 ! R7    R(5,11)                 1.4627         -DE/DX =    0.0001              !
 ! R8    R(7,8)                  1.7531         -DE/DX =    0.0001              !
 ! R9    R(7,9)                  1.3739         -DE/DX =   -0.0004              !
 ! R10   R(9,10)                 1.7531         -DE/DX =    0.0001              !
 ! R11   R(9,11)                 1.4627         -DE/DX =    0.0001              !
 ! R12   R(11,12)                1.2468         -DE/DX =    0.0003              !
 ! A1    A(1,2,3)              123.1018         -DE/DX =   -0.0001              !
 ! A2    A(1,2,7)              123.1018         -DE/DX =   -0.0001              !
 ! A3    A(3,2,7)              113.7964         -DE/DX =    0.0001              !
 ! A4    A(2,3,4)              115.2307         -DE/DX =    0.0001              !
 ! A5    A(2,3,5)              123.1018         -DE/DX =   -0.0001              !
 ! A6    A(4,3,5)              121.6675         -DE/DX =    0.0                 !
 ! A7    A(3,5,6)              121.6675         -DE/DX =    0.0                 !
 ! A8    A(3,5,11)             123.1018         -DE/DX =   -0.0001              !
 ! A9    A(6,5,11)             115.2307         -DE/DX =    0.0001              !
 ! A10   A(2,7,8)              115.2307         -DE/DX =    0.0001              !
 ! A11   A(2,7,9)              123.1018         -DE/DX =   -0.0001              !
 ! A12   A(8,7,9)              121.6675         -DE/DX =    0.0                 !
 ! A13   A(7,9,10)             121.6675         -DE/DX =    0.0                 !
 ! A14   A(7,9,11)             123.1018         -DE/DX =   -0.0001              !
 ! A15   A(10,9,11)            115.2307         -DE/DX =    0.0001              !
 ! A16   A(5,11,9)             113.7964         -DE/DX =    0.0001              !
 ! A17   A(5,11,12)            123.1018         -DE/DX =   -0.0001              !
 ! A18   A(9,11,12)            123.1018         -DE/DX =   -0.0001              !
 ! D1    D(1,2,3,4)              0.0            -DE/DX =    0.0                 !
 ! D2    D(1,2,3,5)            180.0            -DE/DX =    0.0                 !
 ! D3    D(7,2,3,4)            180.0            -DE/DX =    0.0                 !
 ! D4    D(7,2,3,5)              0.0            -DE/DX =    0.0                 !
 ! D5    D(1,2,7,8)              0.0            -DE/DX =    0.0                 !
 ! D6    D(1,2,7,9)            180.0            -DE/DX =    0.0                 !
 ! D7    D(3,2,7,8)            180.0            -DE/DX =    0.0                 !
 ! D8    D(3,2,7,9)              0.0            -DE/DX =    0.0                 !
 ! D9    D(2,3,5,6)            180.0            -DE/DX =    0.0                 !
 ! D10   D(2,3,5,11)             0.0            -DE/DX =    0.0                 !
 ! D11   D(4,3,5,6)              0.0            -DE/DX =    0.0                 !
 ! D12   D(4,3,5,11)           180.0            -DE/DX =    0.0                 !
 ! D13   D(3,5,11,9)             0.0            -DE/DX =    0.0                 !
 ! D14   D(3,5,11,12)          180.0            -DE/DX =    0.0                 !
 ! D15   D(6,5,11,9)           180.0            -DE/DX =    0.0                 !
 ! D16   D(6,5,11,12)            0.0            -DE/DX =    0.0                 !
 ! D17   D(2,7,9,10)           180.0            -DE/DX =    0.0                 !
 ! D18   D(2,7,9,11)             0.0            -DE/DX =    0.0                 !
 ! D19   D(8,7,9,10)             0.0            -DE/DX =    0.0                 !
 ! D20   D(8,7,9,11)           180.0            -DE/DX =    0.0                 !
 ! D21   D(7,9,11,5)             0.0            -DE/DX =    0.0                 !
 ! D22   D(7,9,11,12)          180.0            -DE/DX =    0.0                 !
 ! D23   D(10,9,11,5)          180.0            -DE/DX =    0.0                 !
 ! D24   D(10,9,11,12)           0.0            -DE/DX =    0.0                 !
 --------------------------------------------------------------------------------
 GradGradGradGradGradGradGradGradGradGradGradGradGradGradGradGradGradGrad

 Leave Link  103 at Tue Jun  3 11:53:35 2025, MaxMem=  4697620480 cpu:              14.9 elap:               0.7
 (Enter /opt/ebsofts/Gaussian/g16/l9999.exe)
 Dipole is zero, so no output in dipole orientation.

 ----------------------------------------------------------------------

 Electric dipole moment (input orientation):
 (Debye = 10**-18 statcoulomb cm , SI units = C m)
                  (au)            (Debye)         (10**-30 SI)
   Tot        0.000000D+00      0.000000D+00      0.000000D+00
   x          0.000000D+00      0.000000D+00      0.000000D+00
   y          0.000000D+00      0.000000D+00      0.000000D+00
   z          0.000000D+00      0.000000D+00      0.000000D+00

 Dipole polarizability, Alpha (input orientation).
 (esu units = cm**3 , SI units = C**2 m**2 J**-1)
 Alpha(0;0):
               (au)            (10**-24 esu)      (10**-40 SI)
   iso        0.120219D+03      0.178146D+02      0.198215D+02
   aniso      0.114682D+03      0.169941D+02      0.189085D+02
   xx         0.156535D+03      0.231961D+02      0.258091D+02
   yx         0.000000D+00      0.000000D+00      0.000000D+00
   yy         0.160327D+03      0.237579D+02      0.264343D+02
   zx         0.000000D+00      0.000000D+00      0.000000D+00
   zy         0.000000D+00      0.000000D+00      0.000000D+00
   zz         0.437959D+02      0.648988D+01      0.722096D+01

 ----------------------------------------------------------------------
 1\1\GINC-CPU008\Freq\UB3LYP\6-31G(d,p)\C6Cl4O2(1-,2)\WEGA\03-Jun-2025\
 0\\#P Geom=AllCheck Guess=TCheck SCRF=Check GenChk UB3LYP/6-31G(d,p) F
 req\\Chloranil Anion\\-1,2\O,-2.7325642654,0.,0.\C,-1.4857830826,0.,0.
 \C,-0.6869358382,-1.2253442014,0.\Cl,-1.6073019642,-2.7174368233,0.\C,
 0.6869358382,-1.2253442014,0.\Cl,1.6073019642,-2.7174368233,0.\C,-0.68
 69358382,1.2253442014,0.\Cl,-1.6073019642,2.7174368233,0.\C,0.68693583
 82,1.2253442014,0.\Cl,1.6073019642,2.7174368233,0.\C,1.4857830826,0.,0
 .\O,2.7325642654,0.,0.\\Version=ES64L-G16RevA.03\State=2-B2G\HF=-2219.
 9104949\S2=0.761494\S2-1=0.\S2A=0.75004\RMSD=1.079e-09\RMSF=1.691e-04\
 ZeroPoint=0.0456018\Thermal=0.0565955\Dipole=0.,0.,0.\DipoleDeriv=-1.1
 612065,0.,0.,0.,-0.380118,0.,0.,0.,-0.3767912,0.794571,0.,0.,0.,-0.205
 7293,0.,0.,0.,0.1982477,0.2311151,-0.0878184,0.,0.8847247,0.7097984,0.
 ,0.,0.,-0.0576312,-0.2977974,-0.3693867,0.,-0.3967831,-0.6668747,0.,0.
 ,0.,-0.1030971,0.2311151,0.0878183,0.,-0.8847247,0.7097984,0.,0.,0.,-0
 .0576312,-0.2977973,0.3693868,0.,0.3967831,-0.6668748,0.,0.,0.,-0.1030
 971,0.2311151,0.0878184,0.,-0.8847247,0.7097984,0.,0.,0.,-0.0576312,-0
 .2977974,0.3693868,0.,0.3967831,-0.6668747,0.,0.,0.,-0.1030971,0.23111
 51,-0.0878184,0.,0.8847247,0.7097984,0.,0.,0.,-0.0576312,-0.2977973,-0
 .3693868,0.,-0.3967831,-0.6668747,0.,0.,0.,-0.1030971,0.794571,0.,0.,0
 .,-0.2057293,0.,0.,0.,0.1982477,-1.1612065,0.,0.,0.,-0.380118,0.,0.,0.
 ,-0.3767912\Polar=156.5348946,0.0000002,160.3265609,0.,0.,43.7958739\Q
 uadrupole=-12.078584,-0.7549114,12.8334954,0.,0.,0.\PG=D02H [C2"(O1C1.
 C1O1),SG(C4Cl4)]\NImag=0\\0.68150565,0.,0.09428203,0.,0.,0.02723048,-0
 .55721238,0.,0.,0.80486162,0.,-0.08033697,0.,0.,0.47933129,0.,0.,-0.05
 741791,0.,0.,0.15941143,-0.06541784,0.04674224,0.,-0.10071697,0.010261
 21,0.,0.65592602,0.03556582,-0.00296272,0.,0.04692470,-0.17142003,0.,-
 0.01616170,0.44436921,0.,0.,0.01498606,0.,0.,-0.06048390,0.,0.,0.09131
 917,0.00467278,0.00710993,0.,-0.00257105,-0.00146134,0.,-0.07111711,-0
 .05264450,0.,0.09724074,-0.00064923,0.00266189,0.,-0.02559453,-0.04212
 475,0.,-0.05132164,-0.12049044,0.,0.07901818,0.17432824,0.,0.,-0.00209
 877,0.,0.,0.00479552,0.,0.,-0.02075110,0.,0.,0.01026318,0.00230585,-0.
 00765756,0.,-0.02032719,0.05742881,0.,-0.38967315,-0.02431488,0.,-0.01
 915741,-0.00966133,0.,0.65592602,-0.00251063,-0.00701818,0.,0.02666497
 ,0.02372048,0.,0.02431488,-0.08952048,0.,-0.03554477,-0.02052198,0.,0.
 01616170,0.44436921,0.,0.,0.00288828,0.,0.,0.00026701,0.,0.,-0.0409431
 5,0.,0.,0.00335417,0.,0.,0.09131917,-0.00212017,0.00305379,0.,-0.00152
 539,-0.00837738,0.,-0.01915741,0.03554477,0.,-0.00637922,0.00261890,0.
 ,-0.07111711,0.05264450,0.,0.09724074,0.00186874,-0.00146308,0.,-0.001
 24526,0.00676371,0.,0.00966133,-0.02052198,0.,-0.00261890,0.00430522,0
 .,0.05132164,-0.12049044,0.,-0.07901818,0.17432824,0.,0.,-0.00015050,0
 .,0.,0.00439171,0.,0.,0.00335417,0.,0.,-0.00167481,0.,0.,-0.02075110,0
 .,0.,0.01026318,-0.06541784,-0.04674224,0.,-0.10071697,-0.01026121,0.,
 0.03993900,-0.01559363,0.,0.00090702,0.00649041,0.,-0.03241247,-0.0171
 1707,0.,-0.00025576,-0.00005463,0.,0.65592602,-0.03556582,-0.00296272,
 0.,-0.04692470,-0.17142003,0.,0.01559363,-0.04270402,0.,0.00210886,0.0
 0072357,0.,-0.01711707,-0.01455307,0.,0.00017444,0.00037766,0.,0.01616
 170,0.44436921,0.,0.,0.01498606,0.,0.,-0.06048390,0.,0.,0.00379996,0.,
 0.,0.00260156,0.,0.,0.00354291,0.,0.,-0.00058096,0.,0.,0.09131917,0.00
 467278,-0.00710993,0.,-0.00257105,0.00146134,0.,0.00090702,-0.00210886
 ,0.,0.00056314,0.00039234,0.,-0.00025576,0.00017444,0.,-0.00025756,0.0
 0072426,0.,-0.07111711,0.05264450,0.,0.09724074,0.00064924,0.00266189,
 0.,0.02559452,-0.04212475,0.,-0.00649041,0.00072357,0.,-0.00039234,-0.
 00335839,0.,-0.00005463,0.00037766,0.,0.00072426,-0.00120165,0.,0.0513
 2164,-0.12049044,0.,-0.07901818,0.17432824,0.,0.,-0.00209877,0.,0.,0.0
 0479552,0.,0.,0.00260156,0.,0.,-0.00011221,0.,0.,-0.00058096,0.,0.,-0.
 00003780,0.,0.,-0.02075110,0.,0.,0.01026318,0.00230585,0.00765756,0.,-
 0.02032719,-0.05742880,0.,-0.03241247,0.01711707,0.,-0.00025576,0.0000
 5463,0.,0.03993900,0.01559363,0.,0.00090702,-0.00649041,0.,-0.38967315
 ,0.02431488,0.,-0.01915741,0.00966133,0.,0.65592602,0.00251063,-0.0070
 1818,0.,-0.02666497,0.02372049,0.,0.01711707,-0.01455307,0.,-0.0001744
 4,0.00037766,0.,-0.01559363,-0.04270402,0.,-0.00210886,0.00072357,0.,-
 0.02431488,-0.08952048,0.,0.03554477,-0.02052198,0.,-0.01616170,0.4443
 6921,0.,0.,0.00288828,0.,0.,0.00026701,0.,0.,0.00354291,0.,0.,-0.00058
 096,0.,0.,0.00379996,0.,0.,0.00260156,0.,0.,-0.04094315,0.,0.,0.003354
 17,0.,0.,0.09131917,-0.00212017,-0.00305379,0.,-0.00152539,0.00837738,
 0.,-0.00025576,-0.00017444,0.,-0.00025756,-0.00072426,0.,0.00090702,0.
 00210886,0.,0.00056314,-0.00039234,0.,-0.01915741,-0.03554477,0.,-0.00
 637922,-0.00261890,0.,-0.07111711,-0.05264450,0.,0.09724074,-0.0018687
 4,-0.00146308,0.,0.00124526,0.00676371,0.,0.00005463,0.00037766,0.,-0.
 00072426,-0.00120165,0.,0.00649041,0.00072357,0.,0.00039234,-0.0033583
 9,0.,-0.00966133,-0.02052198,0.,0.00261890,0.00430522,0.,-0.05132164,-
 0.12049044,0.,0.07901818,0.17432824,0.,0.,-0.00015050,0.,0.,0.00439171
 ,0.,0.,-0.00058096,0.,0.,-0.00003780,0.,0.,0.00260156,0.,0.,-0.0001122
 1,0.,0.,0.00335417,0.,0.,-0.00167481,0.,0.,-0.02075110,0.,0.,0.0102631
 8,0.01318369,0.,0.,-0.01055175,0.,0.,-0.02032719,-0.02666497,0.,-0.001
 52539,0.00124526,0.,-0.10071697,-0.04692470,0.,-0.00257105,0.02559453,
 0.,-0.02032719,0.02666497,0.,-0.00152539,-0.00124526,0.,-0.10071697,0.
 04692470,0.,-0.00257105,-0.02559452,0.,0.80486162,0.,0.00293595,0.,0.,
 -0.03580911,0.,-0.05742881,0.02372048,0.,0.00837738,0.00676371,0.,-0.0
 1026121,-0.17142003,0.,0.00146134,-0.04212475,0.,0.05742880,0.02372049
 ,0.,-0.00837738,0.00676371,0.,0.01026121,-0.17142003,0.,-0.00146134,-0
 .04212475,0.,0.,0.47933129,0.,0.,-0.00201036,0.,0.,0.00207618,0.,0.,0.
 00026701,0.,0.,0.00439171,0.,0.,-0.06048390,0.,0.,0.00479552,0.,0.,0.0
 0026701,0.,0.,0.00439171,0.,0.,-0.06048390,0.,0.,0.00479552,0.,0.,0.15
 941143,-0.01635820,0.,0.,0.01318369,0.,0.,0.00230585,0.00251063,0.,-0.
 00212017,-0.00186874,0.,-0.06541784,-0.03556582,0.,0.00467278,0.000649
 23,0.,0.00230585,-0.00251063,0.,-0.00212017,0.00186874,0.,-0.06541784,
 0.03556582,0.,0.00467278,-0.00064924,0.,-0.55721238,0.,0.,0.68150565,0
 .,0.00068318,0.,0.,0.00293595,0.,0.00765756,-0.00701818,0.,-0.00305379
 ,-0.00146308,0.,-0.04674224,-0.00296272,0.,-0.00710993,0.00266189,0.,-
 0.00765756,-0.00701818,0.,0.00305379,-0.00146308,0.,0.04674224,-0.0029
 6272,0.,0.00710993,0.00266189,0.,0.,-0.08033697,0.,0.,0.09428203,0.,0.
 ,0.00094766,0.,0.,-0.00201036,0.,0.,0.00288828,0.,0.,-0.00015050,0.,0.
 ,0.01498606,0.,0.,-0.00209877,0.,0.,0.00288828,0.,0.,-0.00015050,0.,0.
 ,0.01498606,0.,0.,-0.00209877,0.,0.,-0.05741791,0.,0.,0.02723048\\0.00
 030210,0.,0.,-0.00036116,0.,0.,-0.00036326,0.00009901,0.,0.00000449,0.
 00006847,0.,0.00036326,0.00009901,0.,-0.00000449,0.00006847,0.,-0.0003
 6326,-0.00009901,0.,0.00000449,-0.00006847,0.,0.00036326,-0.00009901,0
 .,-0.00000449,-0.00006847,0.,0.00036116,0.,0.,-0.00030210,0.,0.\\\@


     "IF I COULD JUST GET IT ON PAPER"
 LIFE AND INK, THEY RUN OUT AT THE SAME TIME,
 OR SO SAID MY OLD FRIEND THE SQUID.
     -- JIMMY BUFFETT, 1981
 Job cpu time:       0 days  0 hours 23 minutes  5.3 seconds.
 Elapsed time:       0 days  0 hours  0 minutes 50.2 seconds.
 File lengths (MBytes):  RWF=    106 Int=      0 D2E=      0 Chk=      6 Scr=      1
 Normal termination of Gaussian 16 at Tue Jun  3 11:53:35 2025.
